{\rtf1\ansi\ansicpg1252\cocoartf2638
\cocoatextscaling0\cocoaplatform0{\fonttbl\f0\fswiss\fcharset0 Helvetica;}
{\colortbl;\red255\green255\blue255;}
{\*\expandedcolortbl;;}
\margl1440\margr1440\vieww11520\viewh8400\viewkind0
\pard\tx720\tx1440\tx2160\tx2880\tx3600\tx4320\tx5040\tx5760\tx6480\tx7200\tx7920\tx8640\pardirnatural\partightenfactor0

\f0\fs24 \cf0        N       E                     dE             d eps       ncg     rms          rms(c)\
DAV:   1     0.669972694260E+04    0.66997E+04   -0.35892E+05  3390   0.769E+02\
DAV:   2    -0.100405941237E+04   -0.77038E+04   -0.75029E+04  3690   0.259E+02\
DAV:   3    -0.203412496226E+04   -0.10301E+04   -0.10234E+04  3500   0.997E+01\
DAV:   4    -0.205624485146E+04   -0.22120E+02   -0.22069E+02  3400   0.164E+01\
DAV:   5    -0.205680497189E+04   -0.56012E+00   -0.55980E+00  3560   0.233E+00    0.697E+01\
RMM:   6    -0.191972805210E+04    0.13708E+03   -0.41682E+02  2920   0.188E+01    0.311E+01\
RMM:   7    -0.191302355177E+04    0.67045E+01   -0.36212E+01  2920   0.460E+00    0.240E+01\
RMM:   8    -0.190961176859E+04    0.34118E+01   -0.11756E+01  2920   0.214E+00    0.154E+01\
RMM:   9    -0.190823019112E+04    0.13816E+01   -0.38209E+00  2920   0.221E+00    0.112E+01\
RMM:  10    -0.190736042889E+04    0.86976E+00   -0.13729E+00  2920   0.726E-01    0.107E+01\
RMM:  11    -0.190722057278E+04    0.13986E+00   -0.95106E-01  2920   0.585E-01    0.707E+00\
RMM:  12    -0.190734189463E+04   -0.12132E+00   -0.71351E-01  2920   0.547E-01    0.877E+00\
RMM:  13    -0.190694754100E+04    0.39435E+00   -0.29922E-01  2920   0.366E-01    0.990E+00\
RMM:  14    -0.190663368991E+04    0.31385E+00   -0.19746E-01  2920   0.319E-01    0.646E+00\
RMM:  15    -0.190664997763E+04   -0.16288E-01   -0.12815E-01  2918   0.264E-01    0.726E+00\
RMM:  16    -0.190664208168E+04    0.78960E-02   -0.21036E-01  2920   0.311E-01    0.712E+00\
RMM:  17    -0.190678657839E+04   -0.14450E+00   -0.20236E-01  2920   0.322E-01    0.915E+00\
RMM:  18    -0.190679943449E+04   -0.12856E-01   -0.11462E-01  2920   0.262E-01    0.128E+01\
RMM:  19    -0.190636454169E+04    0.43489E+00   -0.15236E-01  2920   0.311E-01    0.849E+00\
RMM:  20    -0.190633276350E+04    0.31778E-01   -0.49479E-02  2911   0.243E-01    0.536E+00\
RMM:  21    -0.190639298736E+04   -0.60224E-01   -0.24644E-02  2766   0.127E-01    0.584E+00\
RMM:  22    -0.190635507952E+04    0.37908E-01   -0.14174E-02  2755   0.120E-01    0.379E+00\
RMM:  23    -0.190639025950E+04   -0.35180E-01   -0.20377E-02  2822   0.105E-01    0.442E+00\
RMM:  24    -0.190635759918E+04    0.32660E-01   -0.17435E-02  2794   0.119E-01    0.275E+00\
RMM:  25    -0.190642069930E+04   -0.63100E-01   -0.16425E-02  2853   0.107E-01    0.395E+00\
RMM:  26    -0.190639052595E+04    0.30173E-01   -0.17016E-02  2911   0.113E-01    0.357E+00\
RMM:  27    -0.190637507260E+04    0.15453E-01   -0.44316E-03  2593   0.665E-02    0.303E+00\
RMM:  28    -0.190639476918E+04   -0.19697E-01   -0.17232E-02  2797   0.912E-02    0.371E+00\
RMM:  29    -0.190637391152E+04    0.20858E-01   -0.10607E-02  2755   0.106E-01    0.316E+00\
RMM:  30    -0.190640002258E+04   -0.26111E-01   -0.12947E-02  2682   0.946E-02    0.432E+00\
RMM:  31    -0.190634953540E+04    0.50487E-01   -0.18485E-02  2884   0.115E-01    0.277E+00\
RMM:  32    -0.190637844519E+04   -0.28910E-01   -0.13410E-02  2712   0.113E-01    0.170E+00\
RMM:  33    -0.190640231308E+04   -0.23868E-01   -0.62647E-03  2685   0.822E-02    0.147E+00\
RMM:  34    -0.190641060305E+04   -0.82900E-02   -0.63327E-03  2777   0.660E-02    0.207E+00\
RMM:  35    -0.190639416429E+04    0.16439E-01   -0.24488E-03  2581   0.617E-02    0.105E+00\
RMM:  36    -0.190640611948E+04   -0.11955E-01   -0.18547E-03  2610   0.359E-02    0.109E+00\
RMM:  37    -0.190641012821E+04   -0.40087E-02   -0.18382E-03  2618   0.389E-02    0.104E+00\
RMM:  38    -0.190641008736E+04    0.40848E-04   -0.87896E-04  2366   0.269E-02\
    1 T=   273. E= -.18961059E+04 F= -.19064101E+04 E0= -.19064814E+04  EK= 0.10304E+02 SP= 0.00E+00 SK= 0.00E+00\
       N       E                     dE             d eps       ncg     rms          rms(c)\
DAV:   1    -0.190613778860E+04    0.27234E+00   -0.14627E+01  3200   0.474E+00    0.123E+00\
RMM:   2    -0.190634716830E+04   -0.20938E+00   -0.52141E-01  2920   0.782E-01    0.744E+00\
RMM:   3    -0.190604260343E+04    0.30456E+00   -0.58928E-02  2920   0.239E-01    0.320E+00\
RMM:   4    -0.190614063893E+04   -0.98035E-01   -0.22889E-02  2905   0.155E-01    0.169E+00\
RMM:   5    -0.190618393387E+04   -0.43295E-01   -0.16751E-02  2918   0.137E-01    0.239E+00\
RMM:   6    -0.190615308650E+04    0.30847E-01   -0.98581E-03  2915   0.962E-02    0.133E+00\
RMM:   7    -0.190620067938E+04   -0.47593E-01   -0.14420E-02  2920   0.107E-01    0.341E+00\
RMM:   8    -0.190613781801E+04    0.62861E-01   -0.11049E-02  2911   0.101E-01    0.130E+00\
RMM:   9    -0.190617631099E+04   -0.38493E-01   -0.59701E-03  2677   0.838E-02    0.139E+00\
RMM:  10    -0.190616672159E+04    0.95894E-02   -0.24317E-03  2479   0.512E-02    0.471E-01\
RMM:  11    -0.190617657596E+04   -0.98544E-02   -0.16874E-03  2453   0.389E-02    0.105E+00\
RMM:  12    -0.190616954932E+04    0.70266E-02   -0.14406E-03  2647   0.401E-02    0.323E-01\
RMM:  13    -0.190617437643E+04   -0.48271E-02   -0.45212E-04  2144   0.270E-02    0.302E-01\
RMM:  14    -0.190617432833E+04    0.48100E-04   -0.16310E-04  1958   0.144E-02\
    2 T=   267. E= -.18961155E+04 F= -.19061743E+04 E0= -.19062442E+04  EK= 0.10059E+02 SP= 0.45E-07 SK= -.12E-11\
       N       E                     dE             d eps       ncg     rms          rms(c)\
DAV:   1    -0.190548998227E+04    0.68439E+00   -0.41207E-02  3500   0.141E+00    0.730E-01\
RMM:   2    -0.190568201650E+04   -0.19203E+00   -0.13501E-01  2920   0.380E-01    0.763E+00\
RMM:   3    -0.190536576534E+04    0.31625E+00   -0.49011E-02  2920   0.205E-01    0.296E+00\
RMM:   4    -0.190547233611E+04   -0.10657E+00   -0.20990E-02  2784   0.153E-01    0.133E+00\
RMM:   5    -0.190549100205E+04   -0.18666E-01   -0.38869E-03  2561   0.665E-02    0.495E-01\
RMM:   6    -0.190549752884E+04   -0.65268E-02   -0.13792E-03  2374   0.348E-02    0.573E-01\
RMM:   7    -0.190549667588E+04    0.85296E-03   -0.50316E-04  2123   0.225E-02    0.288E-01\
RMM:   8    -0.190549801363E+04   -0.13378E-02   -0.28238E-04  2053   0.205E-02    0.190E-01\
RMM:   9    -0.190549814131E+04   -0.12767E-03   -0.10744E-04  1909   0.117E-02    0.153E-01\
RMM:  10    -0.190549832453E+04   -0.18322E-03   -0.14677E-04  1954   0.126E-02    0.195E-01\
RMM:  11    -0.190549833694E+04   -0.12405E-04   -0.99319E-05  1926   0.104E-02\
    3 T=   249. E= -.18961042E+04 F= -.19054983E+04 E0= -.19055665E+04  EK= 0.93941E+01 SP= 0.76E-04 SK= -.35E-05\
       N       E                     dE             d eps       ncg     rms          rms(c)\
DAV:   1    -0.190455977818E+04    0.93855E+00   -0.38315E+00  4090   0.271E+00    0.144E+00\
RMM:   2    -0.190520773775E+04   -0.64796E+00   -0.38079E-01  2920   0.516E-01    0.132E+01\
RMM:   3    -0.190447186923E+04    0.73587E+00   -0.14143E-01  2920   0.308E-01    0.599E+00\
RMM:   4    -0.190455266392E+04   -0.80795E-01   -0.89182E-02  2880   0.264E-01    0.445E+00\
RMM:   5    -0.190452943165E+04    0.23232E-01   -0.22125E-02  2750   0.144E-01    0.194E+00\
RMM:   6    -0.190457046999E+04   -0.41038E-01   -0.74118E-03  2639   0.847E-02    0.160E+00\
RMM:   7    -0.190457039697E+04    0.73022E-04   -0.25983E-03  2392   0.422E-02    0.126E+00\
RMM:   8    -0.190457528442E+04   -0.48875E-02   -0.35338E-03  2525   0.478E-02    0.970E-01\
RMM:   9    -0.190458278753E+04   -0.75031E-02   -0.19874E-03  2495   0.530E-02    0.886E-01\
RMM:  10    -0.190457998041E+04    0.28071E-02   -0.68107E-04  2236   0.291E-02    0.277E-01\
RMM:  11    -0.190458301255E+04   -0.30321E-02   -0.29920E-04  2071   0.190E-02    0.334E-01\
RMM:  12    -0.190458314289E+04   -0.13035E-03   -0.25606E-04  2057   0.172E-02    0.249E-01\
RMM:  13    -0.190458341153E+04   -0.26864E-03   -0.16869E-04  1987   0.142E-02    0.288E-01\
RMM:  14    -0.190458305912E+04    0.35241E-03   -0.91109E-05  1858   0.106E-02    0.118E-01\
RMM:  15    -0.190458354641E+04   -0.48728E-03   -0.75341E-05  1874   0.965E-03    0.152E-01\
RMM:  16    -0.190458346223E+04    0.84176E-04   -0.35537E-05  1646   0.666E-03\
    4 T=   225. E= -.18960874E+04 F= -.19045835E+04 E0= -.19046502E+04  EK= 0.84957E+01 SP= 0.43E-03 SK= -.49E-04\
       N       E                     dE             d eps       ncg     rms          rms(c)\
DAV:   1    -0.190367343147E+04    0.91011E+00   -0.30271E-01  4210   0.212E+00    0.484E-01\
RMM:   2    -0.190376531871E+04   -0.91887E-01   -0.54262E-02  2920   0.231E-01    0.478E+00\
RMM:   3    -0.190360926540E+04    0.15605E+00   -0.20835E-02  2905   0.138E-01    0.195E+00\
RMM:   4    -0.190366641183E+04   -0.57146E-01   -0.82562E-03  2691   0.105E-01    0.444E-01\
RMM:   5    -0.190368027655E+04   -0.13865E-01   -0.13373E-03  2366   0.407E-02    0.375E-01\
RMM:   6    -0.190368094731E+04   -0.67076E-03   -0.45560E-04  2145   0.216E-02    0.188E-01\
RMM:   7    -0.190368163747E+04   -0.69016E-03   -0.16379E-04  1974   0.135E-02    0.267E-01\
RMM:   8    -0.190368143037E+04    0.20709E-03   -0.13752E-04  1940   0.132E-02    0.905E-02\
RMM:   9    -0.190368218466E+04   -0.75429E-03   -0.16478E-04  1983   0.122E-02    0.307E-01\
RMM:  10    -0.190368172663E+04    0.45804E-03   -0.15617E-04  1932   0.130E-02    0.774E-02\
RMM:  11    -0.190368244690E+04   -0.72028E-03   -0.11827E-04  1900   0.116E-02    0.182E-01\
RMM:  12    -0.190368228014E+04    0.16676E-03   -0.61434E-05  1780   0.829E-03    0.500E-02\
RMM:  13    -0.190368267899E+04   -0.39884E-03   -0.72718E-05  1870   0.847E-03    0.116E-01\
RMM:  14    -0.190368261365E+04    0.65333E-04   -0.24971E-05  1653   0.545E-03\
    5 T=   202. E= -.18960741E+04 F= -.19036826E+04 E0= -.19037489E+04  EK= 0.76074E+01 SP= 0.14E-02 SK= -.25E-03\
       N       E                     dE             d eps       ncg     rms          rms(c)\
DAV:   1    -0.190300750331E+04    0.67518E+00   -0.79121E+00  4410   0.830E+00    0.379E-01\
RMM:   2    -0.190306913002E+04   -0.61627E-01   -0.32409E-02  2920   0.172E-01    0.416E+00\
RMM:   3    -0.190294211438E+04    0.12702E+00   -0.15406E-02  2817   0.119E-01    0.984E-01\
RMM:   4    -0.190300387685E+04   -0.61762E-01   -0.38588E-03  2660   0.826E-02    0.177E-01\
RMM:   5    -0.190301014958E+04   -0.62727E-02   -0.59802E-04  2188   0.277E-02    0.388E-01\
RMM:   6    -0.190300932047E+04    0.82910E-03   -0.19881E-04  2007   0.159E-02    0.923E-02\
RMM:   7    -0.190301028532E+04   -0.96485E-03   -0.96541E-05  1895   0.126E-02    0.119E-01\
RMM:   8    -0.190301029911E+04   -0.13791E-04   -0.32438E-05  1680   0.604E-03\
    6 T=   184. E= -.18960659E+04 F= -.19030103E+04 E0= -.19030764E+04  EK= 0.69421E+01 SP= 0.31E-02 SK= -.77E-03\
       N       E                     dE             d eps       ncg     rms          rms(c)\
DAV:   1    -0.190266891855E+04    0.34137E+00   -0.17618E+01  4310   0.717E+00    0.318E-01\
RMM:   2    -0.190271307044E+04   -0.44152E-01   -0.26650E-02  2920   0.150E-01    0.392E+00\
RMM:   3    -0.190262030275E+04    0.92768E-01   -0.10906E-02  2726   0.103E-01    0.109E+00\
RMM:   4    -0.190266534304E+04   -0.45040E-01   -0.35473E-03  2580   0.738E-02    0.223E-01\
RMM:   5    -0.190267119833E+04   -0.58553E-02   -0.67665E-04  2209   0.295E-02    0.338E-01\
RMM:   6    -0.190267068790E+04    0.51043E-03   -0.16835E-04  1993   0.137E-02    0.161E-01\
RMM:   7    -0.190267136599E+04   -0.67809E-03   -0.11067E-04  1908   0.123E-02    0.124E-01\
RMM:   8    -0.190267145300E+04   -0.87012E-04   -0.42770E-05  1653   0.683E-03\
    7 T=   175. E= -.18960673E+04 F= -.19026715E+04 E0= -.19027376E+04  EK= 0.66000E+01 SP= 0.59E-02 SK= -.17E-02\
       N       E                     dE             d eps       ncg     rms          rms(c)\
DAV:   1    -0.190262718036E+04    0.44186E-01   -0.51515E+00  4200   0.474E+00    0.482E-01\
RMM:   2    -0.190272368785E+04   -0.96507E-01   -0.36055E-02  2920   0.156E-01    0.527E+00\
RMM:   3    -0.190254021900E+04    0.18347E+00   -0.23474E-02  2836   0.146E-01    0.185E+00\
RMM:   4    -0.190261397503E+04   -0.73756E-01   -0.84749E-03  2718   0.111E-01    0.395E-01\
RMM:   5    -0.190262743219E+04   -0.13457E-01   -0.13449E-03  2359   0.394E-02    0.423E-01\
RMM:   6    -0.190262789136E+04   -0.45917E-03   -0.47912E-04  2162   0.224E-02    0.141E-01\
RMM:   7    -0.190262874451E+04   -0.85315E-03   -0.10918E-04  1911   0.117E-02    0.187E-01\
RMM:   8    -0.190262881877E+04   -0.74255E-04   -0.60659E-05  1829   0.907E-03\
    8 T=   173. E= -.18960767E+04 F= -.19026288E+04 E0= -.19026947E+04  EK= 0.65455E+01 SP= 0.98E-02 SK= -.32E-02\
       N       E                     dE             d eps       ncg     rms          rms(c)\
DAV:   1    -0.190274477155E+04   -0.11603E+00   -0.36865E+00  4050   0.689E+00    0.478E-01\
RMM:   2    -0.190284162521E+04   -0.96854E-01   -0.37554E-02  2920   0.168E-01    0.545E+00\
RMM:   3    -0.190265764332E+04    0.18398E+00   -0.23191E-02  2815   0.139E-01    0.185E+00\
RMM:   4    -0.190272915389E+04   -0.71511E-01   -0.67806E-03  2682   0.960E-02    0.304E-01\
RMM:   5    -0.190274595741E+04   -0.16804E-01   -0.13324E-03  2387   0.428E-02    0.444E-01\
RMM:   6    -0.190274545966E+04    0.49776E-03   -0.35084E-04  2105   0.208E-02    0.136E-01\
RMM:   7    -0.190274669210E+04   -0.12324E-02   -0.14722E-04  1955   0.140E-02    0.241E-01\
RMM:   8    -0.190274649365E+04    0.19846E-03   -0.79134E-05  1876   0.101E-02    0.726E-02\
RMM:   9    -0.190274706670E+04   -0.57306E-03   -0.65137E-05  1857   0.889E-03    0.183E-01\
RMM:  10    -0.190274700552E+04    0.61188E-04   -0.44418E-05  1820   0.744E-03\
    9 T=   176. E= -.18960868E+04 F= -.19027470E+04 E0= -.19028131E+04  EK= 0.66503E+01 SP= 0.15E-01 SK= -.50E-02\
       N       E                     dE             d eps       ncg     rms          rms(c)\
DAV:   1    -0.190287012671E+04   -0.12306E+00   -0.77714E+00  4000   0.358E+00    0.441E-01\
RMM:   2    -0.190295031333E+04   -0.80187E-01   -0.38412E-02  2920   0.184E-01    0.476E+00\
RMM:   3    -0.190279667082E+04    0.15364E+00   -0.19205E-02  2825   0.136E-01    0.180E+00\
RMM:   4    -0.190285744530E+04   -0.60774E-01   -0.75180E-03  2711   0.103E-01    0.356E-01\
RMM:   5    -0.190287057497E+04   -0.13130E-01   -0.11178E-03  2313   0.384E-02    0.313E-01\
RMM:   6    -0.190287143913E+04   -0.86416E-03   -0.34385E-04  2086   0.194E-02    0.129E-01\
RMM:   7    -0.190287197707E+04   -0.53794E-03   -0.10679E-04  1905   0.117E-02    0.199E-01\
RMM:   8    -0.190287185045E+04    0.12662E-03   -0.59169E-05  1835   0.881E-03    0.516E-02\
RMM:   9    -0.190287231163E+04   -0.46118E-03   -0.51479E-05  1862   0.778E-03    0.143E-01\
RMM:  10    -0.190287223338E+04    0.78249E-04   -0.27120E-05  1654   0.593E-03\
   10 T=   179. E= -.18960929E+04 F= -.19028722E+04 E0= -.19029384E+04  EK= 0.67653E+01 SP= 0.21E-01 SK= -.72E-02\
       N       E                     dE             d eps       ncg     rms          rms(c)\
DAV:   1    -0.190288792546E+04   -0.15614E-01   -0.24986E+00  3790   0.317E+00    0.336E-01\
RMM:   2    -0.190294052137E+04   -0.52596E-01   -0.30357E-02  2920   0.180E-01    0.420E+00\
RMM:   3    -0.190282559734E+04    0.11492E+00   -0.13188E-02  2810   0.116E-01    0.931E-01\
RMM:   4    -0.190288451126E+04   -0.58914E-01   -0.39103E-03  2642   0.817E-02    0.195E-01\
RMM:   5    -0.190289046962E+04   -0.59584E-02   -0.60814E-04  2205   0.299E-02    0.364E-01\
RMM:   6    -0.190288961169E+04    0.85793E-03   -0.15365E-04  1962   0.145E-02    0.908E-02\
RMM:   7    -0.190289050262E+04   -0.89094E-03   -0.89943E-05  1889   0.118E-02    0.154E-01\
RMM:   8    -0.190289052408E+04   -0.21458E-04   -0.42922E-05  1813   0.749E-03\
   11 T=   180. E= -.18960948E+04 F= -.19028905E+04 E0= -.19029570E+04  EK= 0.67767E+01 SP= 0.29E-01 SK= -.96E-02\
       N       E                     dE             d eps       ncg     rms          rms(c)\
DAV:   1    -0.190274655276E+04    0.14395E+00   -0.14841E-01  3560   0.227E+00    0.288E-01\
RMM:   2    -0.190278546050E+04   -0.38908E-01   -0.28009E-02  2920   0.175E-01    0.359E+00\
RMM:   3    -0.190270046219E+04    0.84998E-01   -0.96144E-03  2762   0.985E-02    0.875E-01\
RMM:   4    -0.190274456065E+04   -0.44098E-01   -0.31735E-03  2573   0.699E-02    0.181E-01\
RMM:   5    -0.190274910666E+04   -0.45460E-02   -0.48506E-04  2153   0.256E-02    0.310E-01\
RMM:   6    -0.190274848387E+04    0.62279E-03   -0.10790E-04  1906   0.121E-02    0.943E-02\
RMM:   7    -0.190274919115E+04   -0.70729E-03   -0.85930E-05  1890   0.108E-02    0.176E-01\
RMM:   8    -0.190274914920E+04    0.41949E-04   -0.53607E-05  1860   0.817E-03\
   12 T=   176. E= -.18960954E+04 F= -.19027491E+04 E0= -.19028156E+04  EK= 0.66292E+01 SP= 0.37E-01 SK= -.13E-01\
       N       E                     dE             d eps       ncg     rms          rms(c)\
DAV:   1    -0.190244597407E+04    0.30322E+00   -0.96125E-02  3630   0.195E+00    0.411E-01\
RMM:   2    -0.190252014565E+04   -0.74172E-01   -0.38386E-02  2920   0.192E-01    0.471E+00\
RMM:   3    -0.190236904794E+04    0.15110E+00   -0.17596E-02  2823   0.128E-01    0.129E+00\
RMM:   4    -0.190243995553E+04   -0.70908E-01   -0.52530E-03  2682   0.902E-02    0.297E-01\
RMM:   5    -0.190244835281E+04   -0.83973E-02   -0.10405E-03  2309   0.353E-02    0.436E-01\
RMM:   6    -0.190244746293E+04    0.88988E-03   -0.26576E-04  2046   0.175E-02    0.167E-01\
RMM:   7    -0.190244835472E+04   -0.89179E-03   -0.13399E-04  1924   0.145E-02    0.168E-01\
RMM:   8    -0.190244828528E+04    0.69437E-04   -0.41489E-05  1755   0.777E-03\
   13 T=   168. E= -.18960925E+04 F= -.19024483E+04 E0= -.19025148E+04  EK= 0.63252E+01 SP= 0.47E-01 SK= -.16E-01\
       N       E                     dE             d eps       ncg     rms          rms(c)\
DAV:   1    -0.190203416216E+04    0.41419E+00   -0.18661E+00  3560   0.262E+00    0.493E-01\
RMM:   2    -0.190214030088E+04   -0.10614E+00   -0.46864E-02  2920   0.202E-01    0.588E+00\
RMM:   3    -0.190193820137E+04    0.20210E+00   -0.25994E-02  2849   0.155E-01    0.219E+00\
RMM:   4    -0.190201479234E+04   -0.76591E-01   -0.10101E-02  2705   0.115E-01    0.390E-01\
RMM:   5    -0.190203551038E+04   -0.20718E-01   -0.16291E-03  2409   0.455E-02    0.448E-01\
RMM:   6    -0.190203629584E+04   -0.78546E-03   -0.40563E-04  2144   0.226E-02    0.198E-01\
RMM:   7    -0.190203721314E+04   -0.91730E-03   -0.12434E-04  1928   0.136E-02    0.147E-01\
RMM:   8    -0.190203783348E+04   -0.62034E-03   -0.85886E-05  1896   0.103E-02    0.704E-02\
RMM:   9    -0.190203834751E+04   -0.51403E-03   -0.57697E-05  1798   0.726E-03    0.194E-01\
RMM:  10    -0.190203890432E+04   -0.55681E-03   -0.82443E-05  1900   0.992E-03    0.586E-02\
RMM:  11    -0.190203935844E+04   -0.45412E-03   -0.38667E-05  1710   0.717E-03    0.117E-01\
RMM:  12    -0.190203979980E+04   -0.44137E-03   -0.32253E-05  1826   0.624E-03    0.389E-02\
RMM:  13    -0.190204028071E+04   -0.48091E-03   -0.21032E-05  1607   0.490E-03    0.866E-02\
RMM:  14    -0.190204044188E+04   -0.16116E-03   -0.12100E-05  1562   0.412E-03    0.290E-02\
RMM:  15    -0.190204094083E+04   -0.49895E-03   -0.14475E-05  1557   0.396E-03    0.648E-02\
RMM:  16    -0.190204116149E+04   -0.22066E-03   -0.88287E-06  1473   0.336E-03    0.208E-02\
RMM:  17    -0.190204200303E+04   -0.84154E-03   -0.35208E-05  1787   0.527E-03    0.322E-02\
RMM:  18    -0.190204206798E+04   -0.64948E-04   -0.52175E-06  1141   0.253E-03\
   14 T=   157. E= -.18960894E+04 F= -.19020421E+04 E0= -.19021087E+04  EK= 0.59156E+01 SP= 0.58E-01 SK= -.20E-01\
       N       E                     dE             d eps       ncg     rms          rms(c)\
DAV:   1    -0.190160530532E+04    0.43670E+00   -0.19341E-01  3570   0.179E+00    0.374E-01\
RMM:   2    -0.190166895205E+04   -0.63647E-01   -0.64213E-02  2920   0.224E-01    0.438E+00\
RMM:   3    -0.190154505244E+04    0.12390E+00   -0.15586E-02  2806   0.121E-01    0.136E+00\
RMM:   4    -0.190160243210E+04   -0.57380E-01   -0.50064E-03  2666   0.865E-02    0.253E-01\
RMM:   5    -0.190161170155E+04   -0.92694E-02   -0.10069E-03  2306   0.343E-02    0.605E-01\
RMM:   6    -0.190160936612E+04    0.23354E-02   -0.41351E-04  2127   0.237E-02    0.134E-01\
RMM:   7    -0.190161134726E+04   -0.19811E-02   -0.18496E-04  1974   0.176E-02    0.204E-01\
RMM:   8    -0.190161130186E+04    0.45400E-04   -0.75146E-05  1894   0.100E-02\
   15 T=   145. E= -.18960795E+04 F= -.19016113E+04 E0= -.19016779E+04  EK= 0.54879E+01 SP= 0.70E-01 SK= -.26E-01\
       N       E                     dE             d eps       ncg     rms          rms(c)\
DAV:   1    -0.190126964065E+04    0.34171E+00   -0.14341E-02  3580   0.948E-01    0.539E-01\
RMM:   2    -0.190139255405E+04   -0.12291E+00   -0.50170E-02  2920   0.201E-01    0.553E+00\
RMM:   3    -0.190118593421E+04    0.20662E+00   -0.27509E-02  2835   0.152E-01    0.244E+00\
RMM:   4    -0.190124435101E+04   -0.58417E-01   -0.10211E-02  2684   0.116E-01    0.433E-01\
RMM:   5    -0.190126939050E+04   -0.25039E-01   -0.17605E-03  2449   0.496E-02    0.442E-01\
RMM:   6    -0.190127058682E+04   -0.11963E-02   -0.48523E-04  2144   0.231E-02    0.202E-01\
RMM:   7    -0.190127192169E+04   -0.13349E-02   -0.21486E-04  2009   0.159E-02    0.300E-01\
RMM:   8    -0.190127177389E+04    0.14780E-03   -0.14952E-04  1962   0.141E-02    0.908E-02\
RMM:   9    -0.190127282081E+04   -0.10469E-02   -0.14255E-04  1967   0.116E-02    0.314E-01\
RMM:  10    -0.190127280942E+04    0.11395E-04   -0.16923E-04  1968   0.140E-02\
   16 T=   136. E= -.18960707E+04 F= -.19012728E+04 E0= -.19013394E+04  EK= 0.51511E+01 SP= 0.84E-01 SK= -.33E-01\
       N       E                     dE             d eps       ncg     rms          rms(c)\
DAV:   1    -0.190113734846E+04    0.13547E+00   -0.86240E-01  3460   0.194E+00    0.953E-01\
RMM:   2    -0.190146494732E+04   -0.32760E+00   -0.12115E-01  2920   0.262E-01    0.865E+00\
RMM:   3    -0.190100312254E+04    0.46182E+00   -0.76786E-02  2915   0.233E-01    0.492E+00\
RMM:   4    -0.190106044704E+04   -0.57324E-01   -0.31221E-02  2855   0.190E-01    0.150E+00\
RMM:   5    -0.190112106050E+04   -0.60613E-01   -0.56892E-03  2630   0.854E-02    0.694E-01\
RMM:   6    -0.190113380512E+04   -0.12745E-01   -0.17505E-03  2394   0.390E-02    0.726E-01\
RMM:   7    -0.190113409896E+04   -0.29384E-03   -0.89843E-04  2281   0.300E-02    0.267E-01\
RMM:   8    -0.190113744895E+04   -0.33500E-02   -0.44277E-04  2134   0.244E-02    0.339E-01\
RMM:   9    -0.190113692537E+04    0.52358E-03   -0.15710E-04  1971   0.144E-02    0.120E-01\
RMM:  10    -0.190113756587E+04   -0.64050E-03   -0.88136E-05  1823   0.110E-02    0.128E-01\
RMM:  11    -0.190113755308E+04    0.12796E-04   -0.32175E-05  1643   0.633E-03\
   17 T=   133. E= -.18960690E+04 F= -.19011376E+04 E0= -.19012043E+04  EK= 0.50100E+01 SP= 0.99E-01 SK= -.40E-01\
       N       E                     dE             d eps       ncg     rms          rms(c)\
DAV:   1    -0.190126268213E+04   -0.12512E+00   -0.12632E+00  3570   0.567E+00    0.934E-01\
RMM:   2    -0.190155739277E+04   -0.29471E+00   -0.11304E-01  2920   0.250E-01    0.812E+00\
RMM:   3    -0.190117790443E+04    0.37949E+00   -0.67464E-02  2893   0.214E-01    0.457E+00\
RMM:   4    -0.190119195218E+04   -0.14048E-01   -0.33689E-02  2763   0.174E-01    0.186E+00\
RMM:   5    -0.190124091353E+04   -0.48961E-01   -0.60249E-03  2642   0.874E-02    0.763E-01\
RMM:   6    -0.190125846593E+04   -0.17552E-01   -0.15875E-03  2367   0.407E-02    0.672E-01\
RMM:   7    -0.190126027867E+04   -0.18127E-02   -0.77386E-04  2239   0.264E-02    0.285E-01\
RMM:   8    -0.190126372538E+04   -0.34467E-02   -0.44683E-04  2130   0.234E-02    0.351E-01\
RMM:   9    -0.190126355804E+04    0.16734E-03   -0.20385E-04  1999   0.166E-02    0.138E-01\
RMM:  10    -0.190126465453E+04   -0.10965E-02   -0.14657E-04  1972   0.130E-02    0.238E-01\
RMM:  11    -0.190126455158E+04    0.10295E-03   -0.87523E-05  1874   0.104E-02    0.118E-01\
RMM:  12    -0.190126553932E+04   -0.98774E-03   -0.98087E-05  1906   0.107E-02    0.155E-01\
RMM:  13    -0.190126559043E+04   -0.51109E-04   -0.31585E-05  1647   0.599E-03\
   18 T=   136. E= -.18960695E+04 F= -.19012656E+04 E0= -.19013329E+04  EK= 0.51292E+01 SP= 0.12E+00 SK= -.49E-01\
       N       E                     dE             d eps       ncg     rms          rms(c)\
DAV:   1    -0.190162642236E+04   -0.36088E+00   -0.41204E+00  4110   0.470E+00    0.444E-01\
RMM:   2    -0.190172362259E+04   -0.97200E-01   -0.14150E-01  2920   0.292E-01    0.499E+00\
RMM:   3    -0.190155266143E+04    0.17096E+00   -0.24058E-02  2850   0.147E-01    0.144E+00\
RMM:   4    -0.190162899777E+04   -0.76336E-01   -0.66739E-03  2683   0.101E-01    0.271E-01\
RMM:   5    -0.190164080420E+04   -0.11806E-01   -0.12163E-03  2336   0.375E-02    0.477E-01\
RMM:   6    -0.190164007012E+04    0.73408E-03   -0.34426E-04  2081   0.201E-02    0.189E-01\
RMM:   7    -0.190164163702E+04   -0.15669E-02   -0.18394E-04  1982   0.165E-02    0.186E-01\
RMM:   8    -0.190164169257E+04   -0.55551E-04   -0.52000E-05  1822   0.846E-03\
   19 T=   146. E= -.18960712E+04 F= -.19016417E+04 E0= -.19017101E+04  EK= 0.54939E+01 SP= 0.13E+00 SK= -.58E-01\
       N       E                     dE             d eps       ncg     rms          rms(c)\
DAV:   1    -0.190216252259E+04   -0.52089E+00   -0.42760E+00  3990   0.315E+00    0.338E-01\
RMM:   2    -0.190220956209E+04   -0.47040E-01   -0.30361E-02  2920   0.165E-01    0.335E+00\
RMM:   3    -0.190212218594E+04    0.87376E-01   -0.11310E-02  2759   0.103E-01    0.105E+00\
RMM:   4    -0.190215960831E+04   -0.37422E-01   -0.30980E-03  2603   0.717E-02    0.188E-01\
RMM:   5    -0.190216669110E+04   -0.70828E-02   -0.66418E-04  2230   0.300E-02    0.319E-01\
RMM:   6    -0.190216651881E+04    0.17229E-03   -0.16001E-04  1973   0.137E-02    0.118E-01\
RMM:   7    -0.190216758727E+04   -0.10685E-02   -0.99410E-05  1903   0.119E-02    0.138E-01\
RMM:   8    -0.190216789347E+04   -0.30620E-03   -0.49463E-05  1812   0.737E-03    0.125E-01\
RMM:   9    -0.190216934240E+04   -0.14489E-02   -0.11186E-04  1907   0.110E-02    0.125E-01\
RMM:  10    -0.190216995490E+04   -0.61250E-03   -0.61120E-05  1870   0.778E-03    0.159E-01\
RMM:  11    -0.190217090393E+04   -0.94904E-03   -0.71984E-05  1892   0.915E-03    0.421E-02\
RMM:  12    -0.190217172163E+04   -0.81770E-03   -0.41437E-05  1661   0.614E-03    0.147E-01\
RMM:  13    -0.190217243897E+04   -0.71734E-03   -0.38918E-05  1850   0.670E-03    0.391E-02\
RMM:  14    -0.190217324684E+04   -0.80786E-03   -0.35158E-05  1646   0.588E-03    0.122E-01\
RMM:  15    -0.190217400966E+04   -0.76283E-03   -0.35400E-05  1848   0.603E-03    0.321E-02\
RMM:  16    -0.190217486257E+04   -0.85290E-03   -0.38116E-05  1722   0.565E-03    0.982E-02\
RMM:  17    -0.190217529653E+04   -0.43396E-03   -0.26656E-05  1812   0.529E-03    0.220E-02\
RMM:  18    -0.190217560184E+04   -0.30531E-03   -0.16907E-05  1565   0.437E-03    0.436E-02\
RMM:  19    -0.190217563295E+04   -0.31111E-04   -0.43061E-06  1129   0.256E-03\
   20 T=   159. E= -.18960902E+04 F= -.19021756E+04 E0= -.19022466E+04  EK= 0.59976E+01 SP= 0.15E+00 SK= -.67E-01\
       N       E                     dE             d eps       ncg     rms          rms(c)\
DAV:   1    -0.190266939688E+04   -0.49380E+00   -0.23924E+00  3880   0.359E+00    0.389E-01\
RMM:   2    -0.190272017152E+04   -0.50775E-01   -0.35505E-02  2920   0.177E-01    0.413E+00\
RMM:   3    -0.190262099077E+04    0.99181E-01   -0.12573E-02  2783   0.110E-01    0.126E+00\
RMM:   4    -0.190267002730E+04   -0.49037E-01   -0.57973E-03  2666   0.892E-02    0.897E-01\
RMM:   5    -0.190266830348E+04    0.17238E-02   -0.13857E-03  2382   0.416E-02    0.322E-01\
RMM:   6    -0.190267189238E+04   -0.35889E-02   -0.99241E-04  2351   0.295E-02    0.671E-01\
RMM:   7    -0.190266854249E+04    0.33499E-02   -0.49669E-04  2144   0.230E-02    0.214E-01\
RMM:   8    -0.190267128721E+04   -0.27447E-02   -0.33788E-04  2114   0.215E-02    0.317E-01\
RMM:   9    -0.190267074092E+04    0.54629E-03   -0.13307E-04  1957   0.126E-02    0.872E-02\
RMM:  10    -0.190267212194E+04   -0.13810E-02   -0.15795E-04  1975   0.127E-02    0.310E-01\
RMM:  11    -0.190267189977E+04    0.22217E-03   -0.12570E-04  1940   0.122E-02    0.832E-02\
RMM:  12    -0.190267324176E+04   -0.13420E-02   -0.13356E-04  1956   0.120E-02    0.240E-01\
RMM:  13    -0.190267353368E+04   -0.29192E-03   -0.10418E-04  1907   0.106E-02    0.591E-02\
RMM:  14    -0.190267502218E+04   -0.14885E-02   -0.13545E-04  1923   0.111E-02    0.237E-01\
RMM:  15    -0.190267530745E+04   -0.28526E-03   -0.87660E-05  1894   0.970E-03    0.479E-02\
RMM:  16    -0.190267616451E+04   -0.85706E-03   -0.63174E-05  1795   0.835E-03    0.126E-01\
RMM:  17    -0.190267640312E+04   -0.23861E-03   -0.33866E-05  1770   0.624E-03    0.276E-02\
RMM:  18    -0.190267686019E+04   -0.45707E-03   -0.25842E-05  1782   0.587E-03    0.443E-02\
RMM:  19    -0.190267690410E+04   -0.43905E-04   -0.50862E-06  1264   0.268E-03\
   21 T=   172. E= -.18961003E+04 F= -.19026769E+04 E0= -.19027483E+04  EK= 0.64757E+01 SP= 0.18E+00 SK= -.75E-01\
       N       E                     dE             d eps       ncg     rms          rms(c)\
DAV:   1    -0.190298378076E+04   -0.30692E+00   -0.14961E+00  3840   0.341E+00    0.163E-01\
RMM:   2    -0.190299581844E+04   -0.12038E-01   -0.22381E-02  2920   0.160E-01    0.180E+00\
RMM:   3    -0.190297197520E+04    0.23843E-01   -0.30160E-03  2706   0.584E-02    0.364E-01\
RMM:   4    -0.190298612006E+04   -0.14145E-01   -0.10150E-03  2354   0.411E-02    0.269E-01\
RMM:   5    -0.190298645971E+04   -0.33965E-03   -0.16268E-04  1972   0.154E-02    0.121E-01\
RMM:   6    -0.190298686507E+04   -0.40537E-03   -0.74401E-05  1892   0.102E-02    0.148E-01\
RMM:   7    -0.190298682726E+04    0.37817E-04   -0.32850E-05  1779   0.693E-03\
   22 T=   179. E= -.18961035E+04 F= -.19029868E+04 E0= -.19030576E+04  EK= 0.67677E+01 SP= 0.20E+00 SK= -.83E-01\
       N       E                     dE             d eps       ncg     rms          rms(c)\
DAV:   1    -0.190300361653E+04   -0.16751E-01   -0.56204E-01  3700   0.199E+00    0.374E-01\
RMM:   2    -0.190306825570E+04   -0.64639E-01   -0.35847E-02  2920   0.191E-01    0.480E+00\
RMM:   3    -0.190292444900E+04    0.14381E+00   -0.16367E-02  2844   0.132E-01    0.116E+00\
RMM:   4    -0.190299933598E+04   -0.74887E-01   -0.52506E-03  2663   0.935E-02    0.269E-01\
RMM:   5    -0.190300761102E+04   -0.82750E-02   -0.84918E-04  2295   0.359E-02    0.372E-01\
RMM:   6    -0.190300706890E+04    0.54212E-03   -0.19462E-04  2017   0.150E-02    0.189E-01\
RMM:   7    -0.190300787646E+04   -0.80756E-03   -0.11573E-04  1912   0.137E-02    0.871E-02\
RMM:   8    -0.190300854490E+04   -0.66844E-03   -0.76243E-05  1840   0.732E-03    0.258E-01\
RMM:   9    -0.190300957730E+04   -0.10324E-02   -0.18480E-04  1945   0.135E-02    0.948E-02\
RMM:  10    -0.190301070839E+04   -0.11311E-02   -0.11402E-04  1939   0.107E-02    0.247E-01\
RMM:  11    -0.190301130512E+04   -0.59673E-03   -0.12146E-04  1919   0.114E-02    0.680E-02\
RMM:  12    -0.190301187982E+04   -0.57471E-03   -0.50578E-05  1694   0.801E-03    0.114E-01\
RMM:  13    -0.190301280943E+04   -0.92960E-03   -0.58080E-05  1880   0.715E-03    0.335E-02\
RMM:  14    -0.190301340214E+04   -0.59271E-03   -0.34072E-05  1593   0.521E-03    0.117E-01\
RMM:  15    -0.190301416230E+04   -0.76016E-03   -0.54573E-05  1887   0.662E-03    0.336E-02\
RMM:  16    -0.190301481293E+04   -0.65064E-03   -0.39129E-05  1647   0.571E-03    0.930E-02\
RMM:  17    -0.190301506909E+04   -0.25616E-03   -0.23638E-05  1790   0.493E-03    0.204E-02\
RMM:  18    -0.190301540426E+04   -0.33517E-03   -0.18676E-05  1568   0.422E-03    0.503E-02\
RMM:  19    -0.190301547236E+04   -0.68094E-04   -0.68120E-06  1221   0.285E-03\
   23 T=   180. E= -.18961075E+04 F= -.19030155E+04 E0= -.19030857E+04  EK= 0.67765E+01 SP= 0.22E+00 SK= -.91E-01\
       N       E                     dE             d eps       ncg     rms          rms(c)\
DAV:   1    -0.190273871751E+04    0.27669E+00   -0.58401E-03  3380   0.126E+00    0.408E-01\
RMM:   2    -0.190279748881E+04   -0.58771E-01   -0.45789E-02  2920   0.216E-01    0.389E+00\
RMM:   3    -0.190268002649E+04    0.11746E+00   -0.16116E-02  2837   0.122E-01    0.110E+00\
RMM:   4    -0.190273543092E+04   -0.55404E-01   -0.44393E-03  2660   0.848E-02    0.315E-01\
RMM:   5    -0.190274253349E+04   -0.71026E-02   -0.97880E-04  2353   0.346E-02    0.492E-01\
RMM:   6    -0.190274115525E+04    0.13782E-02   -0.29444E-04  2065   0.185E-02    0.231E-01\
RMM:   7    -0.190274202124E+04   -0.86599E-03   -0.17349E-04  1956   0.169E-02    0.722E-02\
RMM:   8    -0.190274269669E+04   -0.67546E-03   -0.11446E-04  1926   0.882E-03    0.311E-01\
RMM:   9    -0.190274258436E+04    0.11234E-03   -0.14940E-04  1954   0.132E-02    0.935E-02\
RMM:  10    -0.190274330363E+04   -0.71928E-03   -0.72494E-05  1824   0.101E-02    0.151E-01\
RMM:  11    -0.190274376237E+04   -0.45874E-03   -0.73299E-05  1898   0.884E-03    0.481E-02\
RMM:  12    -0.190274425973E+04   -0.49735E-03   -0.42396E-05  1653   0.651E-03    0.140E-01\
RMM:  13    -0.190274459032E+04   -0.33060E-03   -0.45266E-05  1867   0.720E-03    0.375E-02\
RMM:  14    -0.190274493467E+04   -0.34435E-03   -0.26067E-05  1601   0.547E-03    0.914E-02\
RMM:  15    -0.190274535291E+04   -0.41824E-03   -0.33356E-05  1818   0.561E-03    0.263E-02\
RMM:  16    -0.190274578717E+04   -0.43426E-03   -0.27654E-05  1697   0.500E-03    0.694E-02\
RMM:  17    -0.190274590943E+04   -0.12226E-03   -0.12847E-05  1538   0.379E-03    0.172E-02\
RMM:  18    -0.190274628236E+04   -0.37292E-03   -0.19475E-05  1716   0.459E-03    0.311E-02\
RMM:  19    -0.190274633168E+04   -0.49320E-04   -0.32123E-06  1106   0.235E-03\
   24 T=   172. E= -.18961020E+04 F= -.19027463E+04 E0= -.19028145E+04  EK= 0.64966E+01 SP= 0.25E+00 SK= -.10E+00\
       N       E                     dE             d eps       ncg     rms          rms(c)\
DAV:   1    -0.190226439859E+04    0.48188E+00   -0.37829E-02  3450   0.157E+00    0.193E-01\
RMM:   2    -0.190227716716E+04   -0.12769E-01   -0.26611E-02  2920   0.176E-01    0.197E+00\
RMM:   3    -0.190224855637E+04    0.28611E-01   -0.36458E-03  2728   0.647E-02    0.380E-01\
RMM:   4    -0.190226687021E+04   -0.18314E-01   -0.13522E-03  2441   0.459E-02    0.518E-01\
RMM:   5    -0.190226568761E+04    0.11826E-02   -0.37359E-04  2103   0.232E-02    0.174E-01\
RMM:   6    -0.190226675954E+04   -0.10719E-02   -0.14591E-04  1951   0.148E-02    0.162E-01\
RMM:   7    -0.190226676056E+04   -0.10266E-05   -0.50564E-05  1791   0.770E-03\
   25 T=   159. E= -.18960919E+04 F= -.19022668E+04 E0= -.19023334E+04  EK= 0.60111E+01 SP= 0.27E+00 SK= -.11E+00\
       N       E                     dE             d eps       ncg     rms          rms(c)\
DAV:   1    -0.190171996507E+04    0.54679E+00   -0.18181E-02  3420   0.120E+00    0.690E-01\
RMM:   2    -0.190190205290E+04   -0.18209E+00   -0.74196E-02  2920   0.229E-01    0.677E+00\
RMM:   3    -0.190160321713E+04    0.29884E+00   -0.43058E-02  2878   0.185E-01    0.305E+00\
RMM:   4    -0.190168557449E+04   -0.82357E-01   -0.15584E-02  2772   0.140E-01    0.785E-01\
RMM:   5    -0.190171737879E+04   -0.31804E-01   -0.26728E-03  2529   0.601E-02    0.396E-01\
RMM:   6    -0.190172142087E+04   -0.40421E-02   -0.74890E-04  2236   0.268E-02    0.333E-01\
RMM:   7    -0.190172213247E+04   -0.71160E-03   -0.32689E-04  2061   0.171E-02    0.322E-01\
RMM:   8    -0.190172223411E+04   -0.10164E-03   -0.21980E-04  2020   0.171E-02    0.103E-01\
RMM:   9    -0.190172288166E+04   -0.64755E-03   -0.98065E-05  1860   0.966E-03    0.225E-01\
RMM:  10    -0.190172288152E+04    0.13214E-06   -0.94644E-05  1904   0.102E-02\
   26 T=   145. E= -.18960810E+04 F= -.19017229E+04 E0= -.19017891E+04  EK= 0.54628E+01 SP= 0.30E+00 SK= -.12E+00\
       N       E                     dE             d eps       ncg     rms          rms(c)\
DAV:   1    -0.190127232602E+04    0.45056E+00   -0.20473E-02  3380   0.980E-01    0.984E-01\
RMM:   2    -0.190166512104E+04   -0.39280E+00   -0.13265E-01  2920   0.271E-01    0.105E+01\
RMM:   3    -0.190108746248E+04    0.57766E+00   -0.88520E-02  2920   0.259E-01    0.448E+00\
RMM:   4    -0.190120673697E+04   -0.11927E+00   -0.37289E-02  2804   0.196E-01    0.192E+00\
RMM:   5    -0.190125808225E+04   -0.51345E-01   -0.83769E-03  2705   0.101E-01    0.835E-01\
RMM:   6    -0.190126928782E+04   -0.11206E-01   -0.18263E-03  2372   0.406E-02    0.727E-01\
RMM:   7    -0.190126962738E+04   -0.33956E-03   -0.10559E-03  2335   0.285E-02    0.382E-01\
RMM:   8    -0.190127262702E+04   -0.29996E-02   -0.59136E-04  2173   0.254E-02    0.416E-01\
RMM:   9    -0.190127246659E+04    0.16043E-03   -0.30801E-04  2075   0.201E-02    0.219E-01\
RMM:  10    -0.190127300193E+04   -0.53535E-03   -0.15120E-04  1952   0.133E-02    0.213E-01\
RMM:  11    -0.190127307376E+04   -0.71831E-04   -0.97904E-05  1857   0.107E-02\
   27 T=   133. E= -.18960743E+04 F= -.19012731E+04 E0= -.19013393E+04  EK= 0.50049E+01 SP= 0.33E+00 SK= -.14E+00\
       N       E                     dE             d eps       ncg     rms          rms(c)\
DAV:   1    -0.190103045908E+04    0.24254E+00   -0.23917E-02  3360   0.126E+00    0.931E-01\
RMM:   2    -0.190139974260E+04   -0.36928E+00   -0.11149E-01  2920   0.244E-01    0.109E+01\
RMM:   3    -0.190083115890E+04    0.56858E+00   -0.80056E-02  2911   0.254E-01    0.437E+00\
RMM:   4    -0.190096944585E+04   -0.13829E+00   -0.38817E-02  2787   0.198E-01    0.206E+00\
RMM:   5    -0.190101301751E+04   -0.43572E-01   -0.83744E-03  2675   0.987E-02    0.807E-01\
RMM:   6    -0.190102694479E+04   -0.13927E-01   -0.19988E-03  2418   0.445E-02    0.701E-01\
RMM:   7    -0.190102817642E+04   -0.12316E-02   -0.11411E-03  2318   0.288E-02    0.296E-01\
RMM:   8    -0.190103072902E+04   -0.25526E-02   -0.44631E-04  2126   0.228E-02    0.303E-01\
RMM:   9    -0.190103064877E+04    0.80251E-04   -0.17843E-04  1985   0.149E-02\
   28 T=   126. E= -.18960718E+04 F= -.19010306E+04 E0= -.19010970E+04  EK= 0.47506E+01 SP= 0.36E+00 SK= -.15E+00\
       N       E                     dE             d eps       ncg     rms          rms(c)\
DAV:   1    -0.190103038340E+04    0.34562E-03   -0.16710E-02  3430   0.118E+00    0.756E-01\
RMM:   2    -0.190119722460E+04   -0.16684E+00   -0.76403E-02  2920   0.214E-01    0.590E+00\
RMM:   3    -0.190096732943E+04    0.22990E+00   -0.42063E-02  2855   0.175E-01    0.307E+00\
RMM:   4    -0.190101319982E+04   -0.45870E-01   -0.21100E-02  2799   0.148E-01    0.181E+00\
RMM:   5    -0.190102192504E+04   -0.87252E-02   -0.45976E-03  2565   0.726E-02    0.711E-01\
RMM:   6    -0.190103083126E+04   -0.89062E-02   -0.14388E-03  2358   0.344E-02    0.595E-01\
RMM:   7    -0.190103146789E+04   -0.63663E-03   -0.82264E-04  2250   0.275E-02    0.283E-01\
RMM:   8    -0.190103363708E+04   -0.21692E-02   -0.41581E-04  2142   0.248E-02    0.284E-01\
RMM:   9    -0.190103329992E+04    0.33716E-03   -0.10628E-04  1897   0.110E-02    0.131E-01\
RMM:  10    -0.190103416071E+04   -0.86079E-03   -0.15070E-04  1972   0.124E-02    0.202E-01\
RMM:  11    -0.190103405726E+04    0.10344E-03   -0.71619E-05  1820   0.102E-02    0.136E-01\
RMM:  12    -0.190103453651E+04   -0.47925E-03   -0.64389E-05  1860   0.787E-03    0.119E-01\
RMM:  13    -0.190103494328E+04   -0.40677E-03   -0.69021E-05  1821   0.874E-03    0.145E-01\
RMM:  14    -0.190103499910E+04   -0.55827E-04   -0.43429E-05  1753   0.763E-03\
   29 T=   125. E= -.18960751E+04 F= -.19010350E+04 E0= -.19011006E+04  EK= 0.47368E+01 SP= 0.39E+00 SK= -.17E+00\
       N       E                     dE             d eps       ncg     rms          rms(c)\
DAV:   1    -0.190123656616E+04   -0.20162E+00   -0.88233E-01  3440   0.468E+00    0.430E-01\
RMM:   2    -0.190131553229E+04   -0.78966E-01   -0.32575E-02  2920   0.173E-01    0.513E+00\
RMM:   3    -0.190115685195E+04    0.15868E+00   -0.18479E-02  2806   0.134E-01    0.144E+00\
RMM:   4    -0.190122880083E+04   -0.71949E-01   -0.60472E-03  2657   0.942E-02    0.386E-01\
RMM:   5    -0.190123997067E+04   -0.11170E-01   -0.13020E-03  2419   0.427E-02    0.345E-01\
RMM:   6    -0.190123975909E+04    0.21158E-03   -0.32152E-04  2073   0.169E-02    0.390E-01\
RMM:   7    -0.190123926697E+04    0.49212E-03   -0.25513E-04  2058   0.195E-02    0.134E-01\
RMM:   8    -0.190123983820E+04   -0.57122E-03   -0.79005E-05  1845   0.103E-02    0.140E-01\
RMM:   9    -0.190123991445E+04   -0.76255E-04   -0.65099E-05  1826   0.872E-03\
   30 T=   130. E= -.18960812E+04 F= -.19012399E+04 E0= -.19013043E+04  EK= 0.49196E+01 SP= 0.43E+00 SK= -.19E+00\
       N       E                     dE             d eps       ncg     rms          rms(c)\
DAV:   1    -0.190154262228E+04   -0.30278E+00   -0.56565E+00  3610   0.624E+00    0.467E-01\
RMM:   2    -0.190164066969E+04   -0.98047E-01   -0.39225E-02  2920   0.182E-01    0.581E+00\
RMM:   3    -0.190143546809E+04    0.20520E+00   -0.24235E-02  2835   0.150E-01    0.149E+00\
RMM:   4    -0.190153180315E+04   -0.96335E-01   -0.70290E-03  2691   0.104E-01    0.267E-01\
RMM:   5    -0.190154470650E+04   -0.12903E-01   -0.12130E-03  2374   0.411E-02    0.391E-01\
RMM:   6    -0.190154424872E+04    0.45778E-03   -0.26423E-04  2048   0.172E-02    0.159E-01\
RMM:   7    -0.190154501972E+04   -0.77099E-03   -0.12771E-04  1918   0.140E-02    0.142E-01\
RMM:   8    -0.190154509777E+04   -0.78055E-04   -0.55049E-05  1786   0.742E-03\
   31 T=   138. E= -.18960862E+04 F= -.19015451E+04 E0= -.19016079E+04  EK= 0.52022E+01 SP= 0.46E+00 SK= -.21E+00\
       N       E                     dE             d eps       ncg     rms          rms(c)\
DAV:   1    -0.190184277956E+04   -0.29776E+00   -0.21790E+00  3490   0.464E+00    0.455E-01\
RMM:   2    -0.190192416731E+04   -0.81388E-01   -0.38014E-02  2920   0.186E-01    0.439E+00\
RMM:   3    -0.190178401480E+04    0.14015E+00   -0.19494E-02  2804   0.129E-01    0.182E+00\
RMM:   4    -0.190182982785E+04   -0.45813E-01   -0.62891E-03  2673   0.951E-02    0.370E-01\
RMM:   5    -0.190184446117E+04   -0.14633E-01   -0.14038E-03  2395   0.421E-02    0.427E-01\
RMM:   6    -0.190184421401E+04    0.24716E-03   -0.37942E-04  2109   0.201E-02    0.207E-01\
RMM:   7    -0.190184519163E+04   -0.97762E-03   -0.16937E-04  1971   0.154E-02    0.214E-01\
RMM:   8    -0.190184512893E+04    0.62691E-04   -0.73849E-05  1878   0.105E-02\
   32 T=   145. E= -.18960906E+04 F= -.19018451E+04 E0= -.19019066E+04  EK= 0.54782E+01 SP= 0.50E+00 SK= -.22E+00\
       N       E                     dE             d eps       ncg     rms          rms(c)\
DAV:   1    -0.190205918008E+04   -0.21399E+00   -0.18622E+00  3540   0.222E+00    0.528E-01\
RMM:   2    -0.190219296187E+04   -0.13378E+00   -0.50270E-02  2920   0.207E-01    0.691E+00\
RMM:   3    -0.190190717165E+04    0.28579E+00   -0.32397E-02  2899   0.181E-01    0.174E+00\
RMM:   4    -0.190204425352E+04   -0.13708E+00   -0.10710E-02  2747   0.132E-01    0.404E-01\
RMM:   5    -0.190206174368E+04   -0.17490E-01   -0.21269E-03  2486   0.510E-02    0.540E-01\
RMM:   6    -0.190206009578E+04    0.16479E-02   -0.46848E-04  2153   0.224E-02    0.215E-01\
RMM:   7    -0.190206143939E+04   -0.13436E-02   -0.22214E-04  2004   0.181E-02    0.231E-01\
RMM:   8    -0.190206125159E+04    0.18780E-03   -0.88055E-05  1884   0.108E-02    0.944E-02\
RMM:   9    -0.190206186764E+04   -0.61605E-03   -0.11800E-04  1919   0.115E-02    0.174E-01\
RMM:  10    -0.190206172238E+04    0.14526E-03   -0.49506E-05  1796   0.773E-03    0.773E-02\
RMM:  11    -0.190206208376E+04   -0.36138E-03   -0.57127E-05  1867   0.834E-03    0.703E-02\
RMM:  12    -0.190206211194E+04   -0.28179E-04   -0.16675E-05  1528   0.428E-03\
   33 T=   150. E= -.18960943E+04 F= -.19020621E+04 E0= -.19021229E+04  EK= 0.56703E+01 SP= 0.54E+00 SK= -.24E+00\
       N       E                     dE             d eps       ncg     rms          rms(c)\
DAV:   1    -0.190215478275E+04   -0.92699E-01   -0.36967E-03  3430   0.124E+00    0.417E-01\
RMM:   2    -0.190222337397E+04   -0.68591E-01   -0.39663E-02  2920   0.196E-01    0.425E+00\
RMM:   3    -0.190209018542E+04    0.13319E+00   -0.16626E-02  2828   0.126E-01    0.131E+00\
RMM:   4    -0.190214960220E+04   -0.59417E-01   -0.51675E-03  2671   0.884E-02    0.327E-01\
RMM:   5    -0.190215748275E+04   -0.78806E-02   -0.13794E-03  2381   0.398E-02    0.273E-01\
RMM:   6    -0.190215752741E+04   -0.44662E-04   -0.23009E-04  2029   0.143E-02\
   34 T=   152. E= -.18960906E+04 F= -.19021575E+04 E0= -.19022185E+04  EK= 0.57468E+01 SP= 0.58E+00 SK= -.26E+00\
       N       E                     dE             d eps       ncg     rms          rms(c)\
DAV:   1    -0.190214182963E+04    0.15653E-01    0.33209E-03  3360   0.113E+00    0.328E-01\
RMM:   2    -0.190219289208E+04   -0.51062E-01   -0.28613E-02  2920   0.173E-01    0.409E+00\
RMM:   3    -0.190208240909E+04    0.11048E+00   -0.11814E-02  2795   0.116E-01    0.792E-01\
RMM:   4    -0.190214368457E+04   -0.61275E-01   -0.38832E-03  2667   0.851E-02    0.256E-01\
RMM:   5    -0.190214707567E+04   -0.33911E-02   -0.51818E-04  2207   0.274E-02    0.192E-01\
RMM:   6    -0.190214698252E+04    0.93148E-04   -0.79635E-05  1869   0.901E-03\
   35 T=   152. E= -.18960839E+04 F= -.19021470E+04 E0= -.19022123E+04  EK= 0.57196E+01 SP= 0.62E+00 SK= -.28E+00\
       N       E                     dE             d eps       ncg     rms          rms(c)\
DAV:   1    -0.190207468348E+04    0.72392E-01    0.12130E-02  3440   0.114E+00    0.120E+00\
RMM:   2    -0.190213633864E+04   -0.61655E-01   -0.21758E-01  2920   0.305E-01    0.377E+00\
RMM:   3    -0.190210060180E+04    0.35737E-01   -0.48208E-02  2804   0.155E-01    0.376E+00\
RMM:   4    -0.190208744309E+04    0.13159E-01   -0.35579E-02  2828   0.171E-01    0.349E+00\
RMM:   5    -0.190204150689E+04    0.45936E-01   -0.13123E-02  2718   0.118E-01    0.938E-01\
RMM:   6    -0.190208483309E+04   -0.43326E-01   -0.51761E-03  2677   0.765E-02    0.115E+00\
RMM:   7    -0.190208146286E+04    0.33702E-02   -0.29660E-03  2563   0.513E-02    0.679E-01\
RMM:   8    -0.190208558491E+04   -0.41221E-02   -0.26273E-03  2546   0.449E-02    0.809E-01\
RMM:   9    -0.190208325635E+04    0.23286E-02   -0.12928E-03  2391   0.351E-02    0.388E-01\
RMM:  10    -0.190208592961E+04   -0.26733E-02   -0.98150E-04  2340   0.290E-02    0.529E-01\
RMM:  11    -0.190208450976E+04    0.14199E-02   -0.47858E-04  2147   0.210E-02    0.196E-01\
RMM:  12    -0.190208599033E+04   -0.14806E-02   -0.35851E-04  2092   0.181E-02    0.276E-01\
RMM:  13    -0.190208564315E+04    0.34718E-03   -0.16749E-04  1905   0.123E-02    0.185E-01\
RMM:  14    -0.190208584329E+04   -0.20014E-03   -0.31585E-04  2023   0.129E-02    0.257E-01\
RMM:  15    -0.190208537620E+04    0.46709E-03   -0.12689E-04  1740   0.920E-03    0.211E-01\
RMM:  16    -0.190208481531E+04    0.56089E-03   -0.36265E-04  1949   0.113E-02    0.239E-01\
RMM:  17    -0.190208493342E+04   -0.11811E-03   -0.26327E-05  1615   0.629E-03    0.245E-01\
RMM:  18    -0.190208677597E+04   -0.18425E-02   -0.20876E-03  2433   0.213E-02    0.138E-01\
RMM:  19    -0.190208781680E+04   -0.10408E-02   -0.30729E-04  1915   0.119E-02    0.196E-01\
RMM:  20    -0.190208847844E+04   -0.66164E-03   -0.22858E-04  1962   0.115E-02    0.110E-01\
RMM:  21    -0.190208913925E+04   -0.66081E-03   -0.89058E-05  1749   0.865E-03    0.138E-01\
RMM:  22    -0.190208935484E+04   -0.21559E-03   -0.41706E-05  1731   0.591E-03    0.965E-02\
RMM:  23    -0.190209090785E+04   -0.15530E-02   -0.47619E-04  2134   0.131E-02    0.123E-01\
RMM:  24    -0.190209121838E+04   -0.31054E-03   -0.10663E-04  1761   0.742E-03    0.960E-02\
RMM:  25    -0.190209273122E+04   -0.15128E-02   -0.12038E-03  2352   0.183E-02    0.137E-01\
RMM:  26    -0.190209307079E+04   -0.33957E-03   -0.16915E-04  1762   0.761E-03    0.155E-01\
RMM:  27    -0.190209357482E+04   -0.50403E-03   -0.20154E-04  1774   0.785E-03    0.172E-01\
RMM:  28    -0.190209290866E+04    0.66616E-03   -0.11243E-04  1675   0.628E-03    0.154E-01\
RMM:  29    -0.190209265636E+04    0.25229E-03   -0.62626E-05  1560   0.479E-03    0.142E-01\
RMM:  30    -0.190209196047E+04    0.69590E-03   -0.47848E-04  2009   0.111E-02    0.110E-01\
RMM:  31    -0.190209162158E+04    0.33889E-03   -0.27265E-04  1787   0.882E-03    0.101E-01\
RMM:  32    -0.190209120868E+04    0.41290E-03   -0.44357E-04  2063   0.106E-02    0.844E-02\
RMM:  33    -0.190209067999E+04    0.52870E-03   -0.59067E-04  2087   0.117E-02    0.968E-02\
RMM:  34    -0.190209057449E+04    0.10550E-03   -0.70473E-05  1590   0.523E-03    0.968E-02\
RMM:  35    -0.190209078867E+04   -0.21418E-03   -0.40032E-05  1355   0.371E-03    0.842E-02\
RMM:  36    -0.190209114371E+04   -0.35504E-03   -0.22526E-04  1740   0.760E-03    0.773E-02\
RMM:  37    -0.190209280815E+04   -0.16644E-02   -0.31897E-03  2565   0.274E-02    0.130E-01\
RMM:  38    -0.190209476040E+04   -0.19522E-02   -0.20331E-03  2410   0.211E-02    0.197E-01\
RMM:  39    -0.190209076570E+04    0.39947E-02   -0.90546E-03  2724   0.459E-02    0.103E-01\
RMM:  40    -0.190208890476E+04    0.18609E-02   -0.34686E-03  2535   0.269E-02    0.216E-01\
RMM:  41    -0.190208496326E+04    0.39415E-02   -0.32684E-03  2508   0.266E-02    0.224E-01\
RMM:  42    -0.190208482853E+04    0.13473E-03   -0.18544E-04  1799   0.899E-03    0.218E-01\
RMM:  43    -0.190208422802E+04    0.60050E-03   -0.20820E-04  1784   0.775E-03    0.890E-02\
RMM:  44    -0.190208758200E+04   -0.33540E-02   -0.14988E-03  2306   0.182E-02    0.252E-01\
RMM:  45    -0.190208743438E+04    0.14762E-03   -0.73779E-05  1641   0.615E-03    0.256E-01\
RMM:  46    -0.190208750087E+04   -0.66494E-04   -0.11538E-05  1103   0.298E-03\
   36 T=   149. E= -.18960854E+04 F= -.19020875E+04 E0= -.19021536E+04  EK= 0.56347E+01 SP= 0.66E+00 SK= -.30E+00\
       N       E                     dE             d eps       ncg     rms          rms(c)\
DAV:   1    -0.190201693118E+04    0.70503E-01    0.26611E-02  3790   0.120E+00    0.486E-01\
RMM:   2    -0.190204396146E+04   -0.27030E-01   -0.41681E-02  2920   0.197E-01    0.315E+00\
RMM:   3    -0.190197969199E+04    0.64269E-01   -0.94746E-03  2797   0.969E-02    0.968E-01\
RMM:   4    -0.190201426552E+04   -0.34574E-01   -0.47270E-03  2628   0.749E-02    0.101E+00\
RMM:   5    -0.190201038834E+04    0.38772E-02   -0.31369E-03  2571   0.502E-02    0.478E-01\
RMM:   6    -0.190202182096E+04   -0.11433E-01   -0.39115E-03  2551   0.470E-02    0.158E+00\
RMM:   7    -0.190200505234E+04    0.16769E-01   -0.31904E-03  2566   0.575E-02    0.520E-01\
RMM:   8    -0.190201481656E+04   -0.97642E-02   -0.16376E-03  2472   0.437E-02    0.401E-01\
RMM:   9    -0.190201548421E+04   -0.66765E-03   -0.61366E-04  2226   0.244E-02    0.439E-01\
RMM:  10    -0.190201786779E+04   -0.23836E-02   -0.12587E-03  2491   0.280E-02    0.551E-01\
RMM:  11    -0.190201768201E+04    0.18578E-03   -0.51290E-04  2233   0.271E-02    0.465E-01\
RMM:  12    -0.190201781808E+04   -0.13607E-03   -0.35111E-04  2068   0.198E-02    0.152E-01\
RMM:  13    -0.190201893062E+04   -0.11125E-02   -0.11723E-04  1786   0.121E-02    0.207E-01\
RMM:  14    -0.190201978322E+04   -0.85259E-03   -0.14252E-04  1943   0.114E-02    0.128E-01\
RMM:  15    -0.190202070569E+04   -0.92248E-03   -0.10952E-04  1796   0.921E-03    0.213E-01\
RMM:  16    -0.190202187413E+04   -0.11684E-02   -0.21722E-04  1972   0.124E-02    0.744E-02\
RMM:  17    -0.190202258277E+04   -0.70864E-03   -0.92136E-05  1803   0.906E-03    0.133E-01\
RMM:  18    -0.190202302430E+04   -0.44153E-03   -0.76113E-05  1853   0.795E-03    0.462E-02\
RMM:  19    -0.190202366645E+04   -0.64215E-03   -0.83906E-05  1796   0.766E-03    0.106E-01\
RMM:  20    -0.190202383319E+04   -0.16674E-03   -0.36331E-05  1728   0.572E-03    0.545E-02\
RMM:  21    -0.190202419999E+04   -0.36680E-03   -0.48417E-05  1711   0.575E-03    0.483E-02\
RMM:  22    -0.190202427108E+04   -0.71096E-04   -0.15628E-05  1344   0.346E-03\
   37 T=   147. E= -.18960776E+04 F= -.19020243E+04 E0= -.19020900E+04  EK= 0.55549E+01 SP= 0.71E+00 SK= -.32E+00\
       N       E                     dE             d eps       ncg     rms          rms(c)\
DAV:   1    -0.190210589813E+04   -0.81698E-01   -0.35166E-01  3960   0.168E+00    0.678E+00\
RMM:   2    -0.190315485574E+04   -0.10490E+01   -0.64753E+00  2920   0.128E+00    0.642E+00\
RMM:   3    -0.190284022434E+04    0.31463E+00   -0.95711E-01  2902   0.673E-01    0.912E+00\
RMM:   4    -0.190239912485E+04    0.44110E+00   -0.20267E-01  2891   0.322E-01    0.621E+00\
RMM:   5    -0.190228028133E+04    0.11884E+00   -0.13118E-01  2877   0.264E-01    0.553E+00\
RMM:   6    -0.190220255722E+04    0.77724E-01   -0.69298E-02  2876   0.213E-01    0.401E+00\
RMM:   7    -0.190220077983E+04    0.17774E-02   -0.19434E-01  2885   0.300E-01    0.589E+00\
RMM:   8    -0.190202816939E+04    0.17261E+00   -0.91780E-02  2867   0.224E-01    0.312E+00\
RMM:   9    -0.190206174018E+04   -0.33571E-01   -0.19779E-02  2786   0.136E-01    0.180E+00\
RMM:  10    -0.190207351558E+04   -0.11775E-01   -0.39006E-03  2622   0.656E-02    0.150E+00\
RMM:  11    -0.190207462219E+04   -0.11066E-02   -0.28517E-03  2573   0.470E-02    0.127E+00\
RMM:  12    -0.190207571250E+04   -0.10903E-02   -0.28051E-03  2560   0.500E-02    0.125E+00\
RMM:  13    -0.190207190355E+04    0.38089E-02   -0.17485E-03  2478   0.404E-02    0.109E+00\
RMM:  14    -0.190206192546E+04    0.99781E-02   -0.70454E-03  2646   0.541E-02    0.957E-01\
RMM:  15    -0.190205921529E+04    0.27102E-02   -0.26732E-03  2543   0.437E-02    0.893E-01\
RMM:  16    -0.190205238524E+04    0.68301E-02   -0.30920E-03  2598   0.390E-02    0.628E-01\
RMM:  17    -0.190205212962E+04    0.25562E-03   -0.76420E-04  2251   0.208E-02    0.497E-01\
RMM:  18    -0.190204963733E+04    0.24923E-02   -0.18616E-03  2527   0.273E-02    0.533E-01\
RMM:  19    -0.190204832368E+04    0.13137E-02   -0.48815E-04  2158   0.198E-02    0.502E-01\
RMM:  20    -0.190204633444E+04    0.19892E-02   -0.65062E-04  2220   0.169E-02    0.398E-01\
RMM:  21    -0.190204593398E+04    0.40046E-03   -0.20730E-04  1782   0.962E-03    0.365E-01\
RMM:  22    -0.190204509154E+04    0.84245E-03   -0.27677E-04  1973   0.108E-02    0.291E-01\
RMM:  23    -0.190204330391E+04    0.17876E-02   -0.13646E-03  2404   0.197E-02    0.230E-01\
RMM:  24    -0.190204305267E+04    0.25123E-03   -0.21727E-04  1860   0.103E-02    0.206E-01\
RMM:  25    -0.190204220764E+04    0.84503E-03   -0.48880E-04  2150   0.129E-02    0.177E-01\
RMM:  26    -0.190204185022E+04    0.35742E-03   -0.22899E-04  1859   0.951E-03    0.189E-01\
RMM:  27    -0.190204126036E+04    0.58987E-03   -0.47009E-04  2193   0.132E-02    0.161E-01\
RMM:  28    -0.190204085635E+04    0.40401E-03   -0.50846E-04  2176   0.135E-02    0.196E-01\
RMM:  29    -0.190204065658E+04    0.19977E-03   -0.14080E-04  1832   0.972E-03    0.201E-01\
RMM:  30    -0.190204035799E+04    0.29859E-03   -0.14899E-04  1835   0.859E-03    0.122E-01\
RMM:  31    -0.190204006889E+04    0.28910E-03   -0.55395E-04  2185   0.137E-02    0.112E-01\
RMM:  32    -0.190203993823E+04    0.13066E-03   -0.10185E-04  1688   0.692E-03    0.118E-01\
RMM:  33    -0.190203982199E+04    0.11625E-03   -0.50713E-05  1586   0.535E-03    0.102E-01\
RMM:  34    -0.190203954080E+04    0.28119E-03   -0.20443E-04  1902   0.844E-03    0.111E-01\
RMM:  35    -0.190203880496E+04    0.73583E-03   -0.66949E-04  2208   0.135E-02    0.149E-01\
RMM:  36    -0.190203860840E+04    0.19656E-03   -0.65159E-05  1645   0.599E-03    0.152E-01\
RMM:  37    -0.190203847774E+04    0.13066E-03   -0.17289E-05  1359   0.338E-03    0.159E-01\
RMM:  38    -0.190203850448E+04   -0.26736E-04   -0.22442E-06   954   0.228E-03\
   38 T=   147. E= -.18960821E+04 F= -.19020385E+04 E0= -.19020954E+04  EK= 0.55397E+01 SP= 0.76E+00 SK= -.34E+00\
       N       E                     dE             d eps       ncg     rms          rms(c)\
DAV:   1    -0.190218691308E+04   -0.14844E+00    0.93886E-02  4320   0.151E+00    0.568E-01\
RMM:   2    -0.190217606104E+04    0.10852E-01   -0.46776E-02  2920   0.184E-01    0.130E+00\
RMM:   3    -0.190217271410E+04    0.33469E-02   -0.77408E-03  2714   0.660E-02    0.185E+00\
RMM:   4    -0.190215445821E+04    0.18256E-01   -0.62720E-03  2745   0.807E-02    0.898E-01\
RMM:   5    -0.190216157096E+04   -0.71127E-02   -0.23874E-03  2506   0.487E-02    0.830E-01\
RMM:   6    -0.190215941781E+04    0.21531E-02   -0.23058E-03  2594   0.474E-02    0.590E-01\
RMM:   7    -0.190215973667E+04   -0.31886E-03   -0.14390E-03  2402   0.323E-02    0.824E-01\
RMM:   8    -0.190215248544E+04    0.72512E-02   -0.23919E-03  2676   0.454E-02    0.296E-01\
RMM:   9    -0.190215433343E+04   -0.18480E-02   -0.60626E-04  2269   0.239E-02    0.438E-01\
RMM:  10    -0.190215170544E+04    0.26280E-02   -0.79324E-04  2427   0.246E-02    0.172E-01\
RMM:  11    -0.190215214298E+04   -0.43754E-03   -0.25472E-04  2027   0.140E-02    0.287E-01\
RMM:  12    -0.190215039503E+04    0.17479E-02   -0.76063E-04  2369   0.198E-02    0.149E-01\
RMM:  13    -0.190215036651E+04    0.28529E-04   -0.12535E-04  1869   0.104E-02\
   39 T=   149. E= -.18960809E+04 F= -.19021504E+04 E0= -.19022050E+04  EK= 0.56269E+01 SP= 0.80E+00 SK= -.36E+00\
       N       E                     dE             d eps       ncg     rms          rms(c)\
DAV:   1    -0.190235654304E+04   -0.20615E+00   -0.10486E+00  3710   0.417E+00    0.343E-01\
RMM:   2    -0.190236562099E+04   -0.90779E-02   -0.23087E-02  2920   0.154E-01    0.158E+00\
RMM:   3    -0.190234906669E+04    0.16554E-01   -0.39663E-03  2676   0.589E-02    0.885E-01\
RMM:   4    -0.190235740728E+04   -0.83406E-02   -0.33025E-03  2605   0.591E-02    0.604E-01\
RMM:   5    -0.190235802361E+04   -0.61634E-03   -0.11510E-03  2334   0.321E-02    0.706E-01\
RMM:   6    -0.190235715814E+04    0.86547E-03   -0.14765E-03  2550   0.378E-02    0.246E-01\
RMM:   7    -0.190235959929E+04   -0.24412E-02   -0.54156E-04  2176   0.216E-02    0.486E-01\
RMM:   8    -0.190235895773E+04    0.64156E-03   -0.63181E-04  2287   0.244E-02    0.159E-01\
RMM:   9    -0.190236076882E+04   -0.18111E-02   -0.30908E-04  2071   0.168E-02    0.409E-01\
RMM:  10    -0.190236000027E+04    0.76855E-03   -0.25491E-04  2049   0.173E-02    0.112E-01\
RMM:  11    -0.190236100732E+04   -0.10070E-02   -0.11971E-04  1854   0.126E-02    0.160E-01\
RMM:  12    -0.190236151917E+04   -0.51185E-03   -0.17729E-04  1954   0.111E-02    0.868E-02\
RMM:  13    -0.190236201739E+04   -0.49822E-03   -0.89558E-05  1773   0.875E-03    0.163E-01\
RMM:  14    -0.190236201392E+04    0.34676E-05   -0.53526E-05  1789   0.790E-03\
   40 T=   154. E= -.18960771E+04 F= -.19023620E+04 E0= -.19024195E+04  EK= 0.58151E+01 SP= 0.85E+00 SK= -.38E+00\
       N       E                     dE             d eps       ncg     rms          rms(c)\
DAV:   1    -0.190294937826E+04   -0.58736E+00   -0.77887E+00  4300   0.482E+00    0.124E+01\
RMM:   2    -0.190638984210E+04   -0.34405E+01   -0.21154E+01  2920   0.190E+00    0.113E+01\
RMM:   3    -0.190453218446E+04    0.18577E+01   -0.27615E+00  2911   0.994E-01    0.938E+00\
RMM:   4    -0.190389437346E+04    0.63781E+00   -0.70476E-01  2888   0.526E-01    0.837E+00\
RMM:   5    -0.190359584047E+04    0.29853E+00   -0.29781E-01  2880   0.352E-01    0.729E+00\
RMM:   6    -0.190338941351E+04    0.20643E+00   -0.22052E-01  2892   0.319E-01    0.856E+00\
RMM:   7    -0.190309868352E+04    0.29073E+00   -0.14557E-01  2901   0.283E-01    0.644E+00\
RMM:   8    -0.190297000955E+04    0.12867E+00   -0.46302E-01  2913   0.454E-01    0.589E+00\
RMM:   9    -0.190279774029E+04    0.17227E+00   -0.11747E-01  2894   0.258E-01    0.413E+00\
RMM:  10    -0.190279760455E+04    0.13574E-03   -0.18787E-02  2818   0.139E-01    0.277E+00\
RMM:  11    -0.190279443826E+04    0.31663E-02   -0.98517E-03  2728   0.885E-02    0.257E+00\
RMM:  12    -0.190278198131E+04    0.12457E-01   -0.82618E-03  2727   0.740E-02    0.215E+00\
RMM:  13    -0.190278159117E+04    0.39014E-03   -0.12653E-02  2743   0.865E-02    0.270E+00\
RMM:  14    -0.190274791189E+04    0.33679E-01   -0.12853E-02  2773   0.957E-02    0.254E+00\
RMM:  15    -0.190272409411E+04    0.23818E-01   -0.56764E-03  2689   0.679E-02    0.194E+00\
RMM:  16    -0.190272413891E+04   -0.44796E-04   -0.10247E-02  2706   0.745E-02    0.214E+00\
RMM:  17    -0.190270731200E+04    0.16827E-01   -0.61708E-03  2717   0.803E-02    0.141E+00\
RMM:  18    -0.190270365544E+04    0.36566E-02   -0.52709E-03  2633   0.529E-02    0.140E+00\
RMM:  19    -0.190268684267E+04    0.16813E-01   -0.10516E-02  2718   0.729E-02    0.104E+00\
RMM:  20    -0.190268327414E+04    0.35685E-02   -0.21061E-03  2504   0.326E-02    0.929E-01\
RMM:  21    -0.190267705120E+04    0.62229E-02   -0.29691E-03  2567   0.372E-02    0.789E-01\
RMM:  22    -0.190267435135E+04    0.26998E-02   -0.14130E-03  2471   0.303E-02    0.733E-01\
RMM:  23    -0.190267143886E+04    0.29125E-02   -0.10560E-03  2386   0.251E-02    0.717E-01\
RMM:  24    -0.190266533241E+04    0.61064E-02   -0.25928E-03  2558   0.328E-02    0.615E-01\
RMM:  25    -0.190266376942E+04    0.15630E-02   -0.70370E-04  2224   0.193E-02    0.566E-01\
RMM:  26    -0.190266092993E+04    0.28395E-02   -0.10213E-03  2364   0.203E-02    0.482E-01\
RMM:  27    -0.190265782236E+04    0.31076E-02   -0.15797E-03  2436   0.231E-02    0.356E-01\
RMM:  28    -0.190265773826E+04    0.84093E-04   -0.21697E-04  1887   0.111E-02\
   41 T=   161. E= -.18960990E+04 F= -.19026577E+04 E0= -.19027023E+04  EK= 0.60597E+01 SP= 0.90E+00 SK= -.40E+00\
       N       E                     dE             d eps       ncg     rms          rms(c)\
DAV:   1    -0.190304564113E+04   -0.38782E+00   -0.32654E-01  4510   0.222E+00    0.135E+00\
RMM:   2    -0.190305181034E+04   -0.61692E-02   -0.27661E-01  2920   0.356E-01    0.453E+00\
RMM:   3    -0.190293621362E+04    0.11560E+00   -0.56445E-02  2864   0.175E-01    0.332E+00\
RMM:   4    -0.190297958690E+04   -0.43373E-01   -0.43373E-02  2816   0.163E-01    0.538E+00\
RMM:   5    -0.190288267450E+04    0.96912E-01   -0.28759E-02  2860   0.158E-01    0.197E+00\
RMM:   6    -0.190294244235E+04   -0.59768E-01   -0.10152E-02  2690   0.112E-01    0.196E+00\
RMM:   7    -0.190292483239E+04    0.17610E-01   -0.93238E-03  2759   0.868E-02    0.162E+00\
RMM:   8    -0.190292241939E+04    0.24130E-02   -0.66823E-03  2650   0.679E-02    0.152E+00\
RMM:   9    -0.190291491870E+04    0.75007E-02   -0.94622E-03  2794   0.839E-02    0.127E+00\
RMM:  10    -0.190291569537E+04   -0.77667E-03   -0.38546E-03  2588   0.603E-02    0.135E+00\
RMM:  11    -0.190290773865E+04    0.79567E-02   -0.39039E-03  2655   0.558E-02    0.851E-01\
RMM:  12    -0.190290982435E+04   -0.20857E-02   -0.12579E-03  2378   0.326E-02    0.644E-01\
RMM:  13    -0.190291020240E+04   -0.37805E-03   -0.21633E-03  2575   0.381E-02    0.482E-01\
RMM:  14    -0.190291054892E+04   -0.34652E-03   -0.57039E-04  2225   0.248E-02    0.269E-01\
RMM:  15    -0.190291060204E+04   -0.53118E-04   -0.11964E-03  2501   0.262E-02    0.287E-01\
RMM:  16    -0.190291050453E+04    0.97515E-04   -0.48033E-04  2190   0.168E-02\
   42 T=   166. E= -.18960975E+04 F= -.19029105E+04 E0= -.19029557E+04  EK= 0.62826E+01 SP= 0.95E+00 SK= -.42E+00\
       N       E                     dE             d eps       ncg     rms          rms(c)\
DAV:   1    -0.190386036445E+04   -0.94976E+00    0.96135E-02  4300   0.145E+00    0.140E+01\
RMM:   2    -0.190768778046E+04   -0.38274E+01   -0.27196E+01  2920   0.201E+00    0.143E+01\
RMM:   3    -0.190563802523E+04    0.20498E+01   -0.44530E+00  2912   0.119E+00    0.103E+01\
RMM:   4    -0.190467507620E+04    0.96295E+00   -0.15205E+00  2902   0.757E-01    0.904E+00\
RMM:   5    -0.190421293285E+04    0.46214E+00   -0.47432E-01  2893   0.432E-01    0.845E+00\
RMM:   6    -0.190395147942E+04    0.26145E+00   -0.23015E-01  2870   0.313E-01    0.636E+00\
RMM:   7    -0.190378994871E+04    0.16153E+00   -0.20125E-01  2879   0.295E-01    0.720E+00\
RMM:   8    -0.190364253308E+04    0.14742E+00   -0.15089E-01  2883   0.266E-01    0.721E+00\
RMM:   9    -0.190361187749E+04    0.30656E-01   -0.30232E-01  2897   0.357E-01    0.120E+01\
RMM:  10    -0.190321345337E+04    0.39842E+00   -0.19913E-01  2897   0.351E-01    0.853E+00\
RMM:  11    -0.190318385704E+04    0.29596E-01   -0.72912E-02  2884   0.259E-01    0.510E+00\
RMM:  12    -0.190322670886E+04   -0.42852E-01   -0.29927E-02  2836   0.158E-01    0.368E+00\
RMM:  13    -0.190325242796E+04   -0.25719E-01   -0.22297E-02  2787   0.118E-01    0.360E+00\
RMM:  14    -0.190321760602E+04    0.34822E-01   -0.13070E-02  2769   0.101E-01    0.387E+00\
RMM:  15    -0.190318720043E+04    0.30406E-01   -0.38436E-03  2588   0.699E-02    0.354E+00\
RMM:  16    -0.190316272823E+04    0.24472E-01   -0.38463E-03  2441   0.372E-02    0.290E+00\
RMM:  17    -0.190315803626E+04    0.46920E-02   -0.74835E-03  2658   0.661E-02    0.251E+00\
RMM:  18    -0.190314794437E+04    0.10092E-01   -0.84074E-03  2689   0.760E-02    0.202E+00\
RMM:  19    -0.190314736325E+04    0.58112E-03   -0.37225E-03  2578   0.544E-02    0.157E+00\
RMM:  20    -0.190315012830E+04   -0.27651E-02   -0.28458E-03  2560   0.462E-02    0.149E+00\
RMM:  21    -0.190314704136E+04    0.30869E-02   -0.17112E-03  2486   0.383E-02    0.143E+00\
RMM:  22    -0.190312886052E+04    0.18181E-01   -0.68433E-03  2703   0.530E-02    0.144E+00\
RMM:  23    -0.190312145157E+04    0.74090E-02   -0.18030E-03  2468   0.318E-02    0.137E+00\
RMM:  24    -0.190310287949E+04    0.18572E-01   -0.94293E-03  2709   0.577E-02    0.113E+00\
RMM:  25    -0.190310369283E+04   -0.81335E-03   -0.15057E-03  2442   0.378E-02    0.108E+00\
RMM:  26    -0.190310027171E+04    0.34211E-02   -0.80879E-04  2301   0.240E-02    0.902E-01\
RMM:  27    -0.190309939941E+04    0.87231E-03   -0.13743E-03  2436   0.277E-02    0.914E-01\
RMM:  28    -0.190309573285E+04    0.36666E-02   -0.13420E-03  2472   0.338E-02    0.875E-01\
RMM:  29    -0.190308881336E+04    0.69195E-02   -0.17289E-03  2473   0.268E-02    0.696E-01\
RMM:  30    -0.190308565546E+04    0.31579E-02   -0.12651E-03  2385   0.227E-02    0.605E-01\
RMM:  31    -0.190308173857E+04    0.39169E-02   -0.14239E-03  2420   0.212E-02    0.500E-01\
RMM:  32    -0.190307840313E+04    0.33354E-02   -0.14419E-03  2439   0.216E-02    0.399E-01\
RMM:  33    -0.190307676481E+04    0.16383E-02   -0.69389E-04  2147   0.156E-02    0.349E-01\
RMM:  34    -0.190307517711E+04    0.15877E-02   -0.59266E-04  2175   0.144E-02    0.333E-01\
RMM:  35    -0.190307386529E+04    0.13118E-02   -0.37519E-04  1972   0.116E-02    0.288E-01\
RMM:  36    -0.190307329385E+04    0.57144E-03   -0.17122E-04  1805   0.902E-03    0.275E-01\
RMM:  37    -0.190307136878E+04    0.19251E-02   -0.91194E-04  2343   0.166E-02    0.239E-01\
RMM:  38    -0.190307002740E+04    0.13414E-02   -0.87164E-04  2258   0.156E-02    0.212E-01\
RMM:  39    -0.190306893546E+04    0.10919E-02   -0.10326E-03  2339   0.169E-02    0.151E-01\
RMM:  40    -0.190306848335E+04    0.45211E-03   -0.62931E-04  2124   0.138E-02    0.139E-01\
RMM:  41    -0.190306838414E+04    0.99219E-04   -0.92912E-05  1702   0.741E-03\
   43 T=   170. E= -.18961022E+04 F= -.19030684E+04 E0= -.19031148E+04  EK= 0.64028E+01 SP= 0.10E+01 SK= -.44E+00\
       N       E                     dE             d eps       ncg     rms          rms(c)\
DAV:   1    -0.190306593686E+04    0.25465E-02   -0.11377E-02  4090   0.119E+00    0.703E-01\
RMM:   2    -0.190317292148E+04   -0.10698E+00   -0.88108E-02  2920   0.242E-01    0.539E+00\
RMM:   3    -0.190297803641E+04    0.19489E+00   -0.30430E-02  2868   0.161E-01    0.217E+00\
RMM:   4    -0.190305096858E+04   -0.72932E-01   -0.13191E-02  2764   0.124E-01    0.952E-01\
RMM:   5    -0.190306979190E+04   -0.18823E-01   -0.56681E-03  2564   0.661E-02    0.166E+00\
RMM:   6    -0.190305312016E+04    0.16672E-01   -0.32495E-03  2565   0.587E-02    0.655E-01\
RMM:   7    -0.190306422007E+04   -0.11100E-01   -0.17439E-03  2478   0.468E-02    0.842E-01\
RMM:   8    -0.190306021423E+04    0.40058E-02   -0.11247E-03  2349   0.331E-02    0.302E-01\
RMM:   9    -0.190306522981E+04   -0.50156E-02   -0.13348E-03  2480   0.326E-02    0.937E-01\
RMM:  10    -0.190305891669E+04    0.63131E-02   -0.99938E-04  2390   0.340E-02    0.390E-01\
RMM:  11    -0.190306249897E+04   -0.35823E-02   -0.52415E-04  2202   0.254E-02    0.385E-01\
RMM:  12    -0.190306217427E+04    0.32471E-03   -0.23517E-04  2018   0.167E-02    0.108E-01\
RMM:  13    -0.190306307573E+04   -0.90146E-03   -0.13380E-04  1855   0.136E-02    0.182E-01\
RMM:  14    -0.190306291673E+04    0.15900E-03   -0.60233E-05  1786   0.839E-03    0.748E-02\
RMM:  15    -0.190306316344E+04   -0.24671E-03   -0.54595E-05  1728   0.770E-03    0.950E-02\
RMM:  16    -0.190306314411E+04    0.19333E-04   -0.22186E-05  1529   0.488E-03\
   44 T=   169. E= -.18961021E+04 F= -.19030631E+04 E0= -.19031115E+04  EK= 0.63638E+01 SP= 0.11E+01 SK= -.46E+00\
       N       E                     dE             d eps       ncg     rms          rms(c)\
DAV:   1    -0.190288482826E+04    0.17834E+00    0.19980E-03  3410   0.110E+00    0.298E-01\
RMM:   2    -0.190291066510E+04   -0.25837E-01   -0.26929E-02  2920   0.173E-01    0.258E+00\
RMM:   3    -0.190285787319E+04    0.52792E-01   -0.70411E-03  2699   0.797E-02    0.756E-01\
RMM:   4    -0.190288358497E+04   -0.25712E-01   -0.19517E-03  2535   0.553E-02    0.249E-01\
RMM:   5    -0.190288645379E+04   -0.28688E-02   -0.72283E-04  2300   0.266E-02    0.370E-01\
RMM:   6    -0.190288558273E+04    0.87106E-03   -0.21580E-04  2014   0.150E-02    0.210E-01\
RMM:   7    -0.190288602011E+04   -0.43738E-03   -0.29366E-04  2091   0.163E-02    0.210E-01\
RMM:   8    -0.190288597550E+04    0.44618E-04   -0.17449E-04  1900   0.117E-02\
   45 T=   163. E= -.18961000E+04 F= -.19028860E+04 E0= -.19029364E+04  EK= 0.61546E+01 SP= 0.11E+01 SK= -.49E+00\
       N       E                     dE             d eps       ncg     rms          rms(c)\
DAV:   1    -0.190256864527E+04    0.31737E+00   -0.95681E-03  3410   0.105E+00    0.527E-01\
RMM:   2    -0.190269804830E+04   -0.12940E+00   -0.48042E-02  2920   0.200E-01    0.708E+00\
RMM:   3    -0.190242326757E+04    0.27478E+00   -0.31349E-02  2872   0.176E-01    0.196E+00\
RMM:   4    -0.190254945527E+04   -0.12619E+00   -0.10570E-02  2753   0.128E-01    0.368E-01\
RMM:   5    -0.190257175160E+04   -0.22296E-01   -0.21562E-03  2540   0.542E-02    0.685E-01\
RMM:   6    -0.190256887008E+04    0.28815E-02   -0.59158E-04  2203   0.268E-02    0.214E-01\
RMM:   7    -0.190257109622E+04   -0.22261E-02   -0.32316E-04  2082   0.216E-02    0.316E-01\
RMM:   8    -0.190257046701E+04    0.62921E-03   -0.14400E-04  1952   0.133E-02    0.117E-01\
RMM:   9    -0.190257103272E+04   -0.56571E-03   -0.14471E-04  1967   0.126E-02    0.185E-01\
RMM:  10    -0.190257084147E+04    0.19125E-03   -0.73468E-05  1805   0.869E-03    0.123E-01\
RMM:  11    -0.190257102535E+04   -0.18388E-03   -0.11667E-04  1938   0.108E-02    0.129E-01\
RMM:  12    -0.190257095599E+04    0.69363E-04   -0.37812E-05  1631   0.655E-03\
   46 T=   154. E= -.18960956E+04 F= -.19025710E+04 E0= -.19026218E+04  EK= 0.58106E+01 SP= 0.12E+01 SK= -.51E+00\
       N       E                     dE             d eps       ncg     rms          rms(c)\
DAV:   1    -0.190218098119E+04    0.39004E+00   -0.84374E-03  3340   0.106E+00    0.544E-01\
RMM:   2    -0.190229476187E+04   -0.11378E+00   -0.51017E-02  2920   0.205E-01    0.579E+00\
RMM:   3    -0.190209321005E+04    0.20155E+00   -0.26987E-02  2840   0.150E-01    0.226E+00\
RMM:   4    -0.190216210438E+04   -0.68894E-01   -0.93529E-03  2680   0.109E-01    0.491E-01\
RMM:   5    -0.190218248061E+04   -0.20376E-01   -0.18753E-03  2458   0.493E-02    0.493E-01\
RMM:   6    -0.190218281668E+04   -0.33607E-03   -0.60647E-04  2227   0.271E-02    0.265E-01\
RMM:   7    -0.190218360936E+04   -0.79268E-03   -0.25308E-04  2036   0.167E-02    0.317E-01\
RMM:   8    -0.190218326889E+04    0.34047E-03   -0.19648E-04  1998   0.161E-02    0.926E-02\
RMM:   9    -0.190218392178E+04   -0.65289E-03   -0.13189E-04  1893   0.116E-02    0.278E-01\
RMM:  10    -0.190218346791E+04    0.45387E-03   -0.14438E-04  1965   0.124E-02    0.686E-02\
RMM:  11    -0.190218392981E+04   -0.46191E-03   -0.79265E-05  1765   0.949E-03    0.143E-01\
RMM:  12    -0.190218385346E+04    0.76359E-04   -0.41249E-05  1710   0.688E-03\
   47 T=   143. E= -.18960908E+04 F= -.19021839E+04 E0= -.19022327E+04  EK= 0.53965E+01 SP= 0.12E+01 SK= -.54E+00\
       N       E                     dE             d eps       ncg     rms          rms(c)\
DAV:   1    -0.190179832948E+04    0.38560E+00   -0.60296E-03  3440   0.120E+00    0.357E-01\
RMM:   2    -0.190185097812E+04   -0.52649E-01   -0.29310E-02  2920   0.171E-01    0.428E+00\
RMM:   3    -0.190173292485E+04    0.11805E+00   -0.14274E-02  2798   0.120E-01    0.113E+00\
RMM:   4    -0.190179251469E+04   -0.59590E-01   -0.46791E-03  2630   0.862E-02    0.221E-01\
RMM:   5    -0.190180015795E+04   -0.76433E-02   -0.79256E-04  2257   0.320E-02    0.385E-01\
RMM:   6    -0.190179933574E+04    0.82221E-03   -0.21939E-04  2025   0.160E-02    0.157E-01\
RMM:   7    -0.190179996671E+04   -0.63097E-03   -0.12673E-04  1909   0.136E-02    0.141E-01\
RMM:   8    -0.190179993510E+04    0.31611E-04   -0.48717E-05  1763   0.734E-03\
   48 T=   132. E= -.18960866E+04 F= -.19017999E+04 E0= -.19018446E+04  EK= 0.49865E+01 SP= 0.13E+01 SK= -.57E+00\
       N       E                     dE             d eps       ncg     rms          rms(c)\
DAV:   1    -0.190148615899E+04    0.31381E+00   -0.42184E-03  3490   0.988E-01    0.601E-01\
RMM:   2    -0.190162287521E+04   -0.13672E+00   -0.55199E-02  2920   0.199E-01    0.615E+00\
RMM:   3    -0.190138125445E+04    0.24162E+00   -0.33935E-02  2854   0.169E-01    0.248E+00\
RMM:   4    -0.190146002480E+04   -0.78770E-01   -0.12185E-02  2728   0.125E-01    0.769E-01\
RMM:   5    -0.190148307139E+04   -0.23047E-01   -0.22439E-03  2481   0.552E-02    0.317E-01\
RMM:   6    -0.190148606627E+04   -0.29949E-02   -0.61670E-04  2175   0.234E-02    0.362E-01\
RMM:   7    -0.190148593912E+04    0.12715E-03   -0.28349E-04  2042   0.164E-02    0.264E-01\
RMM:   8    -0.190148610280E+04   -0.16368E-03   -0.20205E-04  2006   0.164E-02    0.167E-01\
RMM:   9    -0.190148620972E+04   -0.10692E-03   -0.83460E-05  1803   0.853E-03    0.201E-01\
RMM:  10    -0.190148631463E+04   -0.10491E-03   -0.31325E-04  2090   0.142E-02    0.234E-01\
RMM:  11    -0.190148613009E+04    0.18454E-03   -0.11160E-04  1889   0.109E-02    0.121E-01\
RMM:  12    -0.190148638154E+04   -0.25145E-03   -0.10070E-04  1836   0.973E-03    0.893E-02\
RMM:  13    -0.190148640214E+04   -0.20591E-04   -0.27890E-05  1487   0.502E-03\
   49 T=   123. E= -.18960838E+04 F= -.19014864E+04 E0= -.19015271E+04  EK= 0.46470E+01 SP= 0.14E+01 SK= -.60E+00\
       N       E                     dE             d eps       ncg     rms          rms(c)\
DAV:   1    -0.190129111321E+04    0.19527E+00   -0.21375E-01  3380   0.195E+00    0.565E-01\
RMM:   2    -0.190140370281E+04   -0.11259E+00   -0.53280E-02  2920   0.204E-01    0.522E+00\
RMM:   3    -0.190120913383E+04    0.19457E+00   -0.27998E-02  2860   0.151E-01    0.230E+00\
RMM:   4    -0.190126827427E+04   -0.59140E-01   -0.97810E-03  2720   0.111E-01    0.560E-01\
RMM:   5    -0.190128950031E+04   -0.21226E-01   -0.19868E-03  2469   0.501E-02    0.454E-01\
RMM:   6    -0.190129077332E+04   -0.12730E-02   -0.77220E-04  2225   0.270E-02    0.290E-01\
RMM:   7    -0.190129118998E+04   -0.41666E-03   -0.27891E-04  2043   0.171E-02    0.254E-01\
RMM:   8    -0.190129121941E+04   -0.29432E-04   -0.22307E-04  2011   0.155E-02\
   50 T=   117. E= -.18960820E+04 F= -.19012912E+04 E0= -.19013305E+04  EK= 0.44257E+01 SP= 0.14E+01 SK= -.63E+00\
       N       E                     dE             d eps       ncg     rms          rms(c)\
DAV:   1    -0.190124087394E+04    0.50316E-01   -0.25450E-02  3530   0.137E+00    0.854E-01\
RMM:   2    -0.190150571185E+04   -0.26484E+00   -0.97487E-02  2918   0.234E-01    0.854E+00\
RMM:   3    -0.190107839574E+04    0.42732E+00   -0.67953E-02  2895   0.226E-01    0.356E+00\
RMM:   4    -0.190119430687E+04   -0.11591E+00   -0.23082E-02  2785   0.164E-01    0.128E+00\
RMM:   5    -0.190123108067E+04   -0.36774E-01   -0.42320E-03  2607   0.751E-02    0.589E-01\
RMM:   6    -0.190123808550E+04   -0.70048E-02   -0.15016E-03  2344   0.342E-02    0.689E-01\
RMM:   7    -0.190123715785E+04    0.92765E-03   -0.69217E-04  2211   0.273E-02    0.238E-01\
RMM:   8    -0.190123999289E+04   -0.28350E-02   -0.46029E-04  2152   0.225E-02    0.418E-01\
RMM:   9    -0.190123897950E+04    0.10134E-02   -0.22520E-04  2019   0.169E-02    0.160E-01\
RMM:  10    -0.190123995006E+04   -0.97055E-03   -0.35919E-04  2127   0.163E-02    0.281E-01\
RMM:  11    -0.190123957741E+04    0.37265E-03   -0.14833E-04  1952   0.123E-02    0.201E-01\
RMM:  12    -0.190123979363E+04   -0.21622E-03   -0.19403E-04  1968   0.124E-02    0.136E-01\
RMM:  13    -0.190123993175E+04   -0.13811E-03   -0.65899E-05  1685   0.792E-03    0.118E-01\
RMM:  14    -0.190124002240E+04   -0.90648E-04   -0.79312E-05  1755   0.800E-03\
   51 T=   115. E= -.18960823E+04 F= -.19012400E+04 E0= -.19012813E+04  EK= 0.43465E+01 SP= 0.15E+01 SK= -.67E+00\
       N       E                     dE             d eps       ncg     rms          rms(c)\
DAV:   1    -0.190132702086E+04   -0.87089E-01   -0.60003E-03  3490   0.112E+00    0.846E-01\
RMM:   2    -0.190152431849E+04   -0.19730E+00   -0.97657E-02  2918   0.238E-01    0.670E+00\
RMM:   3    -0.190125585687E+04    0.26846E+00   -0.50826E-02  2845   0.185E-01    0.377E+00\
RMM:   4    -0.190128469082E+04   -0.28834E-01   -0.25637E-02  2749   0.152E-01    0.173E+00\
RMM:   5    -0.190131575906E+04   -0.31068E-01   -0.67429E-03  2657   0.876E-02    0.778E-01\
RMM:   6    -0.190132371870E+04   -0.79596E-02   -0.14235E-03  2313   0.353E-02    0.694E-01\
RMM:   7    -0.190132386136E+04   -0.14266E-03   -0.10505E-03  2287   0.275E-02    0.266E-01\
RMM:   8    -0.190132741400E+04   -0.35526E-02   -0.54499E-04  2155   0.246E-02    0.499E-01\
RMM:   9    -0.190132583798E+04    0.15760E-02   -0.28540E-04  2064   0.193E-02    0.215E-01\
RMM:  10    -0.190132683159E+04   -0.99361E-03   -0.13483E-04  1907   0.126E-02    0.221E-01\
RMM:  11    -0.190132690851E+04   -0.76916E-04   -0.14838E-04  1922   0.113E-02\
   52 T=   117. E= -.18960846E+04 F= -.19013269E+04 E0= -.19013735E+04  EK= 0.44026E+01 SP= 0.15E+01 SK= -.71E+00\
       N       E                     dE             d eps       ncg     rms          rms(c)\
DAV:   1    -0.190151430275E+04   -0.18747E+00    0.10368E-02  3800   0.105E+00    0.989E-01\
RMM:   2    -0.190174762257E+04   -0.23332E+00   -0.13777E-01  2920   0.250E-01    0.106E+01\
RMM:   3    -0.190126062174E+04    0.48700E+00   -0.65307E-02  2879   0.236E-01    0.251E+00\
RMM:   4    -0.190150276695E+04   -0.24215E+00   -0.30535E-02  2773   0.178E-01    0.267E+00\
RMM:   5    -0.190149548487E+04    0.72821E-02   -0.12927E-02  2723   0.116E-01    0.123E+00\
RMM:   6    -0.190150639676E+04   -0.10912E-01   -0.31712E-03  2553   0.630E-02    0.600E-01\
[...]
RMM:   4    -0.190678008311E+04   -0.30345E-03   -0.44957E-05  1592   0.745E-03    0.147E-02\
RMM:   5    -0.190678009248E+04   -0.93638E-05   -0.92755E-06   946   0.312E-03\
 3869 T=     0. E= -.18960504E+04 F= -.19067801E+04 E0= -.19068429E+04  EK= 0.68124E-05 SP= 0.29E+05 SK= -.29E+05\
       N       E                     dE             d eps       ncg     rms          rms(c)\
DAV:   1    -0.190677995084E+04    0.13227E-03   -0.12249E+01  1550   0.356E+01    0.149E-02\
RMM:   2    -0.190678018988E+04   -0.23903E-03   -0.14694E-03  2153   0.260E-02    0.183E-01\
RMM:   3    -0.190677992735E+04    0.26253E-03   -0.89643E-05  1722   0.904E-03    0.265E-02\
RMM:   4    -0.190678009738E+04   -0.17003E-03   -0.27467E-05  1528   0.582E-03    0.130E-02\
RMM:   5    -0.190678010164E+04   -0.42598E-05   -0.55474E-06   823   0.264E-03\
 3870 T=     0. E= -.18960504E+04 F= -.19067801E+04 E0= -.19068429E+04  EK= 0.67520E-05 SP= 0.29E+05 SK= -.29E+05\
       N       E                     dE             d eps       ncg     rms          rms(c)\
DAV:   1    -0.190677994991E+04    0.14746E-03   -0.99491E+00  1520   0.502E+01    0.126E-02\
RMM:   2    -0.190678018103E+04   -0.23111E-03   -0.15619E-03  2163   0.247E-02    0.166E-01\
RMM:   3    -0.190677996055E+04    0.22048E-03   -0.88957E-05  1767   0.860E-03    0.252E-02\
RMM:   4    -0.190678010656E+04   -0.14601E-03   -0.23006E-05  1541   0.537E-03    0.101E-02\
RMM:   5    -0.190678011105E+04   -0.44957E-05   -0.40770E-06   720   0.243E-03\
 3871 T=     0. E= -.18960504E+04 F= -.19067801E+04 E0= -.19068429E+04  EK= 0.67763E-05 SP= 0.29E+05 SK= -.29E+05\
       N       E                     dE             d eps       ncg     rms          rms(c)\
DAV:   1    -0.190676222373E+04    0.17883E-01   -0.78465E+00  2700   0.461E+01    0.163E-02\
RMM:   2    -0.190677941887E+04   -0.17195E-01   -0.17182E-01  2150   0.152E-01    0.824E-02\
RMM:   3    -0.190678003177E+04   -0.61290E-03   -0.88187E-03  1843   0.314E-02    0.404E-02\
RMM:   4    -0.190678012263E+04   -0.90856E-04   -0.78026E-04  1609   0.968E-03\
 3872 T=     0. E= -.18960504E+04 F= -.19067801E+04 E0= -.19068430E+04  EK= 0.67721E-05 SP= 0.29E+05 SK= -.29E+05\
       N       E                     dE             d eps       ncg     rms          rms(c)\
DAV:   1    -0.190677608680E+04    0.39450E-02   -0.49295E+00  2270   0.515E+01    0.156E-02\
RMM:   2    -0.190678008393E+04   -0.39971E-02   -0.39508E-02  2115   0.631E-02    0.106E-01\
RMM:   3    -0.190678006896E+04    0.14973E-04   -0.63337E-04  1799   0.139E-02\
 3873 T=     0. E= -.18960503E+04 F= -.19067801E+04 E0= -.19068429E+04  EK= 0.67457E-05 SP= 0.29E+05 SK= -.29E+05\
       N       E                     dE             d eps       ncg     rms          rms(c)\
DAV:   1    -0.190677449451E+04    0.55894E-02   -0.12609E+01  2900   0.510E+01    0.404E-02\
RMM:   2    -0.190678070528E+04   -0.62108E-02   -0.55008E-02  2502   0.103E-01    0.500E-01\
RMM:   3    -0.190677884932E+04    0.18560E-02   -0.22346E-03  2400   0.330E-02    0.914E-02\
RMM:   4    -0.190678011379E+04   -0.12645E-02   -0.21867E-04  1949   0.152E-02    0.471E-02\
RMM:   5    -0.190678013156E+04   -0.17775E-04   -0.19674E-05  1600   0.496E-03\
 3874 T=     0. E= -.18960504E+04 F= -.19067801E+04 E0= -.19068430E+04  EK= 0.67277E-05 SP= 0.29E+05 SK= -.29E+05\
       N       E                     dE             d eps       ncg     rms          rms(c)\
DAV:   1    -0.190677537955E+04    0.47342E-02   -0.23997E+01  2420   0.595E+01    0.245E-02\
RMM:   2    -0.190678029798E+04   -0.49184E-02   -0.46712E-02  2311   0.759E-02    0.302E-01\
RMM:   3    -0.190677970268E+04    0.59530E-03   -0.11917E-03  2103   0.210E-02    0.484E-02\
RMM:   4    -0.190678013670E+04   -0.43402E-03   -0.91638E-05  1796   0.942E-03    0.298E-02\
RMM:   5    -0.190678014453E+04   -0.78308E-05   -0.91916E-06  1306   0.355E-03\
 3875 T=     0. E= -.18960504E+04 F= -.19067801E+04 E0= -.19068430E+04  EK= 0.68381E-05 SP= 0.29E+05 SK= -.29E+05\
       N       E                     dE             d eps       ncg     rms          rms(c)\
DAV:   1    -0.190677182252E+04    0.83142E-02   -0.14616E+01  2390   0.318E+01    0.170E-02\
RMM:   2    -0.190678007460E+04   -0.82521E-02   -0.81754E-02  2150   0.888E-02    0.166E-01\
RMM:   3    -0.190677999445E+04    0.80153E-04   -0.22933E-03  2017   0.234E-02    0.318E-02\
RMM:   4    -0.190678015681E+04   -0.16237E-03   -0.22038E-04  1720   0.871E-03    0.294E-02\
RMM:   5    -0.190678015389E+04    0.29186E-05   -0.12856E-05  1145   0.338E-03\
 3876 T=     0. E= -.18960504E+04 F= -.19067802E+04 E0= -.19068430E+04  EK= 0.67894E-05 SP= 0.29E+05 SK= -.29E+05\
       N       E                     dE             d eps       ncg     rms          rms(c)\
DAV:   1    -0.190677706847E+04    0.30883E-02   -0.12355E+01  2150   0.392E+01    0.140E-02\
RMM:   2    -0.190678014632E+04   -0.30779E-02   -0.30259E-02  2347   0.640E-02    0.136E-01\
RMM:   3    -0.190678006262E+04    0.83693E-04   -0.87701E-04  1923   0.157E-02\
 3877 T=     0. E= -.18960503E+04 F= -.19067801E+04 E0= -.19068429E+04  EK= 0.67821E-05 SP= 0.29E+05 SK= -.29E+05\
       N       E                     dE             d eps       ncg     rms          rms(c)\
DAV:   1    -0.190677927114E+04    0.87518E-03   -0.14063E+01  1850   0.491E+01    0.696E-02\
RMM:   2    -0.190678243748E+04   -0.31663E-02   -0.91986E-03  2579   0.629E-02    0.931E-01\
RMM:   3    -0.190677611621E+04    0.63213E-02   -0.11263E-03  2352   0.328E-02    0.140E-01\
RMM:   4    -0.190678002512E+04   -0.39089E-02   -0.26300E-04  2030   0.210E-02    0.447E-02\
RMM:   5    -0.190678017539E+04   -0.15027E-03   -0.28726E-05  1713   0.671E-03    0.566E-02\
RMM:   6    -0.190678015740E+04    0.17984E-04   -0.68949E-06  1227   0.319E-03\
 3878 T=     0. E= -.18960504E+04 F= -.19067802E+04 E0= -.19068430E+04  EK= 0.67975E-05 SP= 0.29E+05 SK= -.29E+05\
       N       E                     dE             d eps       ncg     rms          rms(c)\
DAV:   1    -0.190677990395E+04    0.27144E-03   -0.18187E+01  1640   0.548E+01    0.188E-02\
RMM:   2    -0.190678032223E+04   -0.41828E-03   -0.27402E-03  2287   0.324E-02    0.222E-01\
RMM:   3    -0.190677992421E+04    0.39802E-03   -0.12506E-04  1859   0.114E-02    0.426E-02\
RMM:   4    -0.190678017832E+04   -0.25411E-03   -0.35290E-05  1669   0.732E-03    0.223E-02\
RMM:   5    -0.190678018155E+04   -0.32254E-05   -0.57836E-06  1075   0.292E-03\
 3879 T=     0. E= -.18960504E+04 F= -.19067802E+04 E0= -.19068430E+04  EK= 0.68166E-05 SP= 0.29E+05 SK= -.29E+05\
       N       E                     dE             d eps       ncg     rms          rms(c)\
DAV:   1    -0.190678017972E+04   -0.13986E-05   -0.14230E+01  1460   0.373E+01    0.210E-02\
RMM:   2    -0.190678039299E+04   -0.21327E-03   -0.16372E-04  1832   0.110E-02    0.269E-01\
RMM:   3    -0.190677981987E+04    0.57312E-03   -0.70189E-05  1761   0.931E-03    0.389E-02\
RMM:   4    -0.190678018246E+04   -0.36260E-03   -0.29418E-05  1558   0.668E-03    0.166E-02\
RMM:   5    -0.190678019110E+04   -0.86383E-05   -0.34984E-06   849   0.264E-03\
 3880 T=     0. E= -.18960504E+04 F= -.19067802E+04 E0= -.19068430E+04  EK= 0.67592E-05 SP= 0.29E+05 SK= -.29E+05\
       N       E                     dE             d eps       ncg     rms          rms(c)\
DAV:   1    -0.190678010107E+04    0.81391E-04   -0.10341E+01  1490   0.417E+01    0.192E-02\
RMM:   2    -0.190678037713E+04   -0.27606E-03   -0.10127E-03  1963   0.199E-02    0.252E-01\
RMM:   3    -0.190677984792E+04    0.52921E-03   -0.80657E-05  1764   0.981E-03    0.401E-02\
RMM:   4    -0.190678019007E+04   -0.34214E-03   -0.30997E-05  1596   0.689E-03    0.164E-02\
RMM:   5    -0.190678020051E+04   -0.10439E-04   -0.43176E-06   913   0.274E-03\
 3881 T=     0. E= -.18960504E+04 F= -.19067802E+04 E0= -.19068430E+04  EK= 0.67889E-05 SP= 0.29E+05 SK= -.29E+05\
       N       E                     dE             d eps       ncg     rms          rms(c)\
DAV:   1    -0.190678006076E+04    0.12930E-03   -0.12552E+01  1550   0.492E+01    0.158E-02\
RMM:   2    -0.190678031731E+04   -0.25655E-03   -0.14889E-03  2200   0.292E-02    0.197E-01\
RMM:   3    -0.190678000638E+04    0.31093E-03   -0.64920E-05  1766   0.894E-03    0.300E-02\
RMM:   4    -0.190678020464E+04   -0.19826E-03   -0.23048E-05  1548   0.580E-03    0.146E-02\
RMM:   5    -0.190678020924E+04   -0.46070E-05   -0.35529E-06   782   0.252E-03\
 3882 T=     0. E= -.18960504E+04 F= -.19067802E+04 E0= -.19068430E+04  EK= 0.67553E-05 SP= 0.29E+05 SK= -.29E+05\
       N       E                     dE             d eps       ncg     rms          rms(c)\
DAV:   1    -0.190678005958E+04    0.14506E-03   -0.98673E+00  1610   0.454E+01    0.950E-03\
RMM:   2    -0.190678025550E+04   -0.19592E-03   -0.15522E-03  1938   0.232E-02    0.122E-01\
RMM:   3    -0.190678014061E+04    0.11489E-03   -0.64609E-05  1605   0.687E-03    0.188E-02\
RMM:   4    -0.190678021632E+04   -0.75710E-04   -0.14349E-05  1319   0.409E-03\
 3883 T=     0. E= -.18960504E+04 F= -.19067802E+04 E0= -.19068431E+04  EK= 0.68835E-05 SP= 0.29E+05 SK= -.29E+05\
       N       E                     dE             d eps       ncg     rms          rms(c)\
DAV:   1    -0.190678006354E+04    0.77076E-04   -0.76479E+00  1550   0.411E+01    0.136E-02\
RMM:   2    -0.190678031181E+04   -0.24827E-03   -0.16146E-03  2040   0.271E-02    0.177E-01\
RMM:   3    -0.190678006383E+04    0.24797E-03   -0.67568E-05  1727   0.821E-03    0.244E-02\
RMM:   4    -0.190678022325E+04   -0.15941E-03   -0.21856E-05  1508   0.539E-03    0.113E-02\
RMM:   5    -0.190678022727E+04   -0.40201E-05   -0.36244E-06   738   0.240E-03\
 3884 T=     0. E= -.18960504E+04 F= -.19067802E+04 E0= -.19068431E+04  EK= 0.67251E-05 SP= 0.29E+05 SK= -.29E+05\
       N       E                     dE             d eps       ncg     rms          rms(c)\
DAV:   1    -0.190678018764E+04    0.35610E-04   -0.26347E+01  1520   0.452E+01    0.724E-03\
RMM:   2    -0.190678025853E+04   -0.70896E-04   -0.48138E-04  1682   0.132E-02\
 3885 T=     0. E= -.18960504E+04 F= -.19067803E+04 E0= -.19068431E+04  EK= 0.67158E-05 SP= 0.29E+05 SK= -.29E+05\
       N       E                     dE             d eps       ncg     rms          rms(c)\
DAV:   1    -0.190678004433E+04    0.14331E-03   -0.12477E+01  1610   0.482E+01    0.233E-02\
RMM:   2    -0.190678028679E+04   -0.24246E-03   -0.56739E-04  1866   0.169E-02    0.131E-01\
RMM:   3    -0.190678015463E+04    0.13216E-03   -0.38002E-05  1634   0.642E-03    0.219E-02\
RMM:   4    -0.190678024321E+04   -0.88584E-04   -0.11090E-05  1368   0.412E-03\
 3886 T=     0. E= -.18960504E+04 F= -.19067802E+04 E0= -.19068431E+04  EK= 0.67532E-05 SP= 0.29E+05 SK= -.29E+05\
       N       E                     dE             d eps       ncg     rms          rms(c)\
DAV:   1    -0.190678009083E+04    0.63800E-04   -0.20098E+01  1520   0.426E+01    0.740E-03\
RMM:   2    -0.190678027202E+04   -0.18120E-03   -0.15816E-03  1990   0.255E-02    0.872E-02\
RMM:   3    -0.190678021895E+04    0.53073E-04   -0.56810E-05  1520   0.610E-03\
 3887 T=     0. E= -.18960503E+04 F= -.19067802E+04 E0= -.19068431E+04  EK= 0.66833E-05 SP= 0.29E+05 SK= -.29E+05\
       N       E                     dE             d eps       ncg     rms          rms(c)\
DAV:   1    -0.190678007631E+04    0.19571E-03   -0.26724E+01  1520   0.408E+01    0.138E-02\
RMM:   2    -0.190678033928E+04   -0.26297E-03   -0.17654E-03  2156   0.292E-02    0.172E-01\
RMM:   3    -0.190678011533E+04    0.22395E-03   -0.88178E-05  1709   0.792E-03    0.271E-02\
RMM:   4    -0.190678025964E+04   -0.14430E-03   -0.21361E-05  1450   0.527E-03    0.123E-02\
RMM:   5    -0.190678026324E+04   -0.35998E-05   -0.37976E-06   727   0.239E-03\
 3888 T=     0. E= -.18960504E+04 F= -.19067803E+04 E0= -.19068431E+04  EK= 0.67553E-05 SP= 0.29E+05 SK= -.29E+05\
       N       E                     dE             d eps       ncg     rms          rms(c)\
DAV:   1    -0.190678013707E+04    0.12257E-03   -0.21169E+01  1610   0.573E+01    0.112E-02\
RMM:   2    -0.190678032353E+04   -0.18647E-03   -0.13358E-03  2051   0.252E-02    0.138E-01\
RMM:   3    -0.190678017045E+04    0.15308E-03   -0.41661E-05  1660   0.709E-03    0.203E-02\
RMM:   4    -0.190678026978E+04   -0.99327E-04   -0.12854E-05  1422   0.436E-03\
 3889 T=     0. E= -.18960504E+04 F= -.19067803E+04 E0= -.19068431E+04  EK= 0.66128E-05 SP= 0.29E+05 SK= -.29E+05\
       N       E                     dE             d eps       ncg     rms          rms(c)\
DAV:   1    -0.190678027065E+04   -0.10020E-03   -0.96166E+00  1460   0.441E+01    0.123E-02\
RMM:   2    -0.190678034432E+04   -0.73667E-04   -0.98609E-05  1641   0.918E-03\
 3890 T=     0. E= -.18960504E+04 F= -.19067803E+04 E0= -.19068432E+04  EK= 0.66110E-05 SP= 0.29E+05 SK= -.29E+05\
       N       E                     dE             d eps       ncg     rms          rms(c)\
DAV:   1    -0.190677983851E+04    0.43214E-03   -0.25283E+00  1460   0.490E+01    0.536E-02\
RMM:   2    -0.190678077654E+04   -0.93803E-03   -0.17811E-04  1957   0.113E-02    0.368E-01\
RMM:   3    -0.190677969956E+04    0.10770E-02   -0.13357E-04  1901   0.116E-02    0.134E-01\
RMM:   4    -0.190678026805E+04   -0.56849E-03   -0.77702E-05  1769   0.111E-02    0.265E-02\
RMM:   5    -0.190678028759E+04   -0.19541E-04   -0.51849E-06  1003   0.295E-03\
 3891 T=     0. E= -.18960504E+04 F= -.19067803E+04 E0= -.19068431E+04  EK= 0.65280E-05 SP= 0.29E+05 SK= -.29E+05\
       N       E                     dE             d eps       ncg     rms          rms(c)\
DAV:   1    -0.190678027837E+04   -0.10325E-04   -0.55894E+00  1460   0.550E+01    0.193E-02\
RMM:   2    -0.190678045264E+04   -0.17426E-03   -0.17943E-04  1859   0.111E-02    0.235E-01\
RMM:   3    -0.190678001652E+04    0.43612E-03   -0.49179E-05  1790   0.830E-03    0.356E-02\
RMM:   4    -0.190678029174E+04   -0.27522E-03   -0.21535E-05  1520   0.590E-03    0.167E-02\
RMM:   5    -0.190678029787E+04   -0.61273E-05   -0.22282E-06   707   0.241E-03\
 3892 T=     0. E= -.18960504E+04 F= -.19067803E+04 E0= -.19068432E+04  EK= 0.66060E-05 SP= 0.29E+05 SK= -.29E+05\
       N       E                     dE             d eps       ncg     rms          rms(c)\
DAV:   1    -0.190678019904E+04    0.92702E-04   -0.85833E+00  1520   0.398E+01    0.203E-02\
RMM:   2    -0.190678050011E+04   -0.30107E-03   -0.10762E-03  1963   0.214E-02    0.264E-01\
RMM:   3    -0.190677994836E+04    0.55175E-03   -0.90049E-05  1784   0.980E-03    0.437E-02\
RMM:   4    -0.190678029709E+04   -0.34873E-03   -0.31210E-05  1591   0.676E-03    0.175E-02\
RMM:   5    -0.190678030654E+04   -0.94523E-05   -0.46788E-06   797   0.271E-03\
 3893 T=     0. E= -.18960504E+04 F= -.19067803E+04 E0= -.19068431E+04  EK= 0.65995E-05 SP= 0.30E+05 SK= -.30E+05\
       N       E                     dE             d eps       ncg     rms          rms(c)\
DAV:   1    -0.190678001996E+04    0.27713E-03   -0.25285E+01  1580   0.372E+01    0.191E-02\
RMM:   2    -0.190678048151E+04   -0.46155E-03   -0.29439E-03  2249   0.415E-02    0.248E-01\
RMM:   3    -0.190677999743E+04    0.48408E-03   -0.12649E-04  1845   0.114E-02    0.375E-02\
RMM:   4    -0.190678030563E+04   -0.30820E-03   -0.35965E-05  1630   0.698E-03    0.132E-02\
RMM:   5    -0.190678031554E+04   -0.99131E-05   -0.66698E-06   906   0.292E-03\
 3894 T=     0. E= -.18960504E+04 F= -.19067803E+04 E0= -.19068432E+04  EK= 0.65881E-05 SP= 0.30E+05 SK= -.30E+05\
       N       E                     dE             d eps       ncg     rms          rms(c)\
DAV:   1    -0.190678023826E+04    0.67364E-04   -0.74255E+00  1520   0.369E+01    0.115E-02\
RMM:   2    -0.190678037433E+04   -0.13606E-03   -0.83701E-04  1983   0.172E-02    0.136E-01\
RMM:   3    -0.190678023015E+04    0.14418E-03   -0.44627E-05  1606   0.670E-03    0.216E-02\
RMM:   4    -0.190678032198E+04   -0.91828E-04   -0.15697E-05  1359   0.442E-03\
 3895 T=     0. E= -.18960504E+04 F= -.19067803E+04 E0= -.19068432E+04  EK= 0.65094E-05 SP= 0.30E+05 SK= -.30E+05\
       N       E                     dE             d eps       ncg     rms          rms(c)\
DAV:   1    -0.190678013936E+04    0.90787E-04   -0.52911E+00  1610   0.491E+01    0.643E-03\
RMM:   2    -0.190678034148E+04   -0.20212E-03   -0.18731E-03  1873   0.248E-02    0.691E-02\
RMM:   3    -0.190678030945E+04    0.32031E-04   -0.66256E-05  1315   0.561E-03\
 3896 T=     0. E= -.18960503E+04 F= -.19067803E+04 E0= -.19068431E+04  EK= 0.64112E-05 SP= 0.30E+05 SK= -.30E+05\
       N       E                     dE             d eps       ncg     rms          rms(c)\
DAV:   1    -0.190678012651E+04    0.21498E-03   -0.55729E+00  1640   0.466E+01    0.114E-02\
RMM:   2    -0.190678039396E+04   -0.26746E-03   -0.20609E-03  2200   0.261E-02    0.149E-01\
RMM:   3    -0.190678022494E+04    0.16902E-03   -0.10942E-04  1719   0.847E-03    0.217E-02\
RMM:   4    -0.190678033827E+04   -0.11332E-03   -0.21146E-05  1464   0.505E-03    0.105E-02\
RMM:   5    -0.190678034146E+04   -0.31950E-05   -0.43798E-06   754   0.244E-03\
 3897 T=     0. E= -.18960504E+04 F= -.19067803E+04 E0= -.19068432E+04  EK= 0.64195E-05 SP= 0.30E+05 SK= -.30E+05\
       N       E                     dE             d eps       ncg     rms          rms(c)\
DAV:   1    -0.190678021393E+04    0.12434E-03   -0.58448E+00  1550   0.439E+01    0.833E-03\
RMM:   2    -0.190678037609E+04   -0.16217E-03   -0.13273E-03  1821   0.192E-02    0.103E-01\
RMM:   3    -0.190678029574E+04    0.80355E-04   -0.44985E-05  1510   0.613E-03\
 3898 T=     0. E= -.18960503E+04 F= -.19067803E+04 E0= -.19068431E+04  EK= 0.64525E-05 SP= 0.30E+05 SK= -.30E+05\
       N       E                     dE             d eps       ncg     rms          rms(c)\
DAV:   1    -0.190678024948E+04    0.12661E-03   -0.68317E+00  1520   0.476E+01    0.128E-02\
RMM:   2    -0.190678042922E+04   -0.17973E-03   -0.10484E-03  2145   0.264E-02    0.162E-01\
RMM:   3    -0.190678023005E+04    0.19916E-03   -0.37980E-05  1688   0.704E-03    0.241E-02\
RMM:   4    -0.190678035528E+04   -0.12522E-03   -0.15184E-05  1463   0.476E-03    0.124E-02\
RMM:   5    -0.190678035842E+04   -0.31456E-05   -0.17956E-06   629   0.217E-03\
 3899 T=     0. E= -.18960504E+04 F= -.19067804E+04 E0= -.19068432E+04  EK= 0.64159E-05 SP= 0.30E+05 SK= -.30E+05\
       N       E                     dE             d eps       ncg     rms          rms(c)\
DAV:   1    -0.190678026341E+04    0.91871E-04   -0.74288E+00  1520   0.612E+01    0.101E-02\
RMM:   2    -0.190678040797E+04   -0.14456E-03   -0.10231E-03  2115   0.251E-02    0.124E-01\
RMM:   3    -0.190678029024E+04    0.11772E-03   -0.35848E-05  1638   0.670E-03    0.186E-02\
RMM:   4    -0.190678036530E+04   -0.75060E-04   -0.10522E-05  1411   0.410E-03\
 3900 T=     0. E= -.18960504E+04 F= -.19067804E+04 E0= -.19068432E+04  EK= 0.64307E-05 SP= 0.30E+05 SK= -.30E+05\
       N       E                     dE             d eps       ncg     rms          rms(c)\
DAV:   1    -0.190678027930E+04    0.10942E-04   -0.81378E+00  1550   0.307E+01    0.938E-03\
RMM:   2    -0.190678040872E+04   -0.12942E-03   -0.91378E-04  1977   0.179E-02    0.115E-01\
RMM:   3    -0.190678031194E+04    0.96780E-04   -0.60407E-05  1601   0.663E-03\
 3901 T=     0. E= -.18960503E+04 F= -.19067803E+04 E0= -.19068432E+04  EK= 0.64243E-05 SP= 0.30E+05 SK= -.30E+05\
       N       E                     dE             d eps       ncg     rms          rms(c)\
DAV:   1    -0.190678034695E+04    0.61768E-04   -0.13250E+01  1460   0.411E+01    0.174E-02\
RMM:   2    -0.190678052481E+04   -0.17786E-03   -0.35559E-04  1911   0.128E-02    0.225E-01\
RMM:   3    -0.190678011955E+04    0.40526E-03   -0.49868E-05  1791   0.815E-03    0.345E-02\
RMM:   4    -0.190678037790E+04   -0.25836E-03   -0.19249E-05  1541   0.565E-03    0.129E-02\
RMM:   5    -0.190678038445E+04   -0.65442E-05   -0.20028E-06   681   0.233E-03\
\
}